ITEM: TIMESTEP
0
ITEM: NUMBER OF ATOMS
499
ITEM: BOX BOUNDS pp pp pp
3.2842038077621153e-03 1.8071715796192262e+01
3.2842038077621153e-03 1.8071715796192262e+01
3.2842038077621153e-03 1.8071715796192262e+01
ITEM: ATOMS id x y z 
271 3.49811 7.12585 0.00996707 
15 12.6491 0.00355646 1.80602 
159 5.42312 7.2291 9.03589 
4 0.00664851 1.81233 1.80838 
137 14.4562 9.03732 9.03723 
6 5.41819 1.81633 0.00371939 
157 14.4579 5.42217 9.03581 
8 3.61761 1.81438 1.8078 
156 16.2631 3.61556 9.03576 
10 9.03099 1.81453 0.00359852 
129 16.2616 9.03713 7.23109 
12 7.22448 1.81514 1.8082 
132 12.6544 7.22951 9.03588 
14 12.6486 1.81633 0.00374346 
155 10.8485 5.42122 9.03675 
16 10.8406 1.81552 1.80593 
131 9.04193 7.22874 9.03692 
128 12.6551 9.03742 7.22436 
154 12.6531 3.61508 9.0366 
20 14.4576 1.81236 1.8067 
59 7.22784 0.00385061 3.6137 
22 1.80121 5.42875 0.00904932 
23 1.81675 3.62293 1.81024 
24 0.010265 5.42108 1.81023 
25 3.61529 3.64074 0.00491244 
26 5.40302 5.45124 0.00513973 
27 5.41614 3.63027 1.80845 
28 3.61791 5.46027 1.80082 
29 7.21905 3.62635 0.00373904 
63 10.8429 0.0034942 3.61081 
31 9.02856 3.62553 1.805 
32 7.21832 5.43694 1.80578 
33 10.8342 3.629 0.00373897 
34 12.6517 5.42938 0.00487945 
35 12.6505 3.62523 1.8065 
36 10.8332 5.43127 1.80548 
37 14.4621 3.62431 0.00496263 
38 16.2765 5.43654 0.00921009 
39 16.2673 3.61943 1.8084 
40 14.4679 5.4352 1.80832 
41 0.0239004 7.25835 0.0289066 
42 1.82025 7.26289 1.80058 
43 3.97366 7.59219 0.00445672 
44 5.43418 7.24383 1.85683 
45 7.13883 7.28236 0.0032993 
46 9.01409 7.23956 1.80048 
55 3.61685 0.00362904 3.61462 
48 12.6475 7.23075 1.80949 
49 14.4642 7.23618 0.00861299 
50 16.2891 7.25358 1.80796 
153 7.23225 5.42008 9.03674 
52 1.81173 1.81158 3.61451 
152 9.04032 3.61326 9.0371 
54 18.0712 1.80954 5.41944 
151 3.61398 5.42066 9.03581 
56 5.42087 1.81485 3.61445 
125 14.4595 7.23081 7.22443 
58 3.61494 1.81208 5.42082 
124 10.8489 7.22973 7.2299 
60 9.03474 1.81318 3.61179 
150 5.42268 3.61262 9.03659 
62 7.22959 1.81076 5.42067 
149 18.0674 5.42074 9.03727 
64 12.6504 1.81304 3.61047 
148 1.80616 3.61404 9.03574 
66 10.8446 1.81064 5.41798 
147 14.4582 1.80905 9.03667 
68 16.2655 1.81047 3.61212 
145 10.8467 1.80811 9.03713 
70 14.4583 1.81122 5.4172 
71 0.0057316 3.61832 3.61422 
72 1.80959 5.43616 3.60851 
73 1.8078 3.6209 5.41928 
74 0.00377274 5.43378 5.41168 
75 3.61467 3.62633 3.61338 
76 5.42084 5.42579 3.62468 
77 5.42135 3.61704 5.42503 
78 3.61155 5.42605 5.42599 
79 7.22697 3.62176 3.61425 
80 9.03205 5.42717 3.61381 
81 9.03743 3.61707 5.42103 
82 7.23117 5.42196 5.42862 
83 10.8414 3.62114 3.61092 
84 12.6503 5.4283 3.61097 
85 12.652 3.61865 5.41733 
86 10.8444 5.42408 5.42006 
87 14.46 3.6221 3.61071 
88 16.2724 5.43335 3.60866 
89 16.2661 3.62029 5.41656 
90 14.4607 5.42738 5.41579 
91 0.0100824 7.25551 3.5895 
92 1.80308 7.23473 5.42205 
93 3.61136 7.23569 3.61984 
94 5.4214 7.22856 5.43227 
95 7.23605 7.23379 3.63294 
96 9.0405 7.23034 5.42917 
97 10.835 7.23202 3.61213 
98 12.6517 7.23164 5.4172 
99 14.4648 7.23586 3.60956 
100 16.2712 7.23536 5.4139 
143 7.23145 1.80661 9.03714 
102 1.80725 1.80939 7.2272 
123 7.23226 7.22866 7.23428 
104 5.42238 1.80776 7.2293 
141 3.61414 1.80687 9.03666 
106 9.039 1.80822 7.22793 
13 10.8411 0.00399431 0.0035782 
108 12.6525 1.80943 7.22631 
139 18.0689 1.80909 9.036 
110 16.2639 1.8101 7.22602 
111 18.0692 3.6186 7.22469 
112 1.80516 5.4237 7.22935 
113 3.61345 3.61524 7.22994 
114 5.42203 5.42089 7.23273 
115 7.23135 3.61363 7.23099 
116 9.04067 5.42101 7.23163 
117 10.8467 3.61522 7.22767 
118 12.6536 5.42313 7.22608 
119 14.4587 3.61712 7.22536 
120 16.2645 5.42471 7.22483 
121 18.0681 7.22875 7.2331 
122 3.6122 7.23027 7.23227 
269 1.82058 9.02025 0.0207872 
276 10.8387 9.03533 1.80942 
277 16.288 9.03323 0.0237952 
328 14.4665 9.03673 5.41212 
278 14.4481 9.03593 1.80954 
325 12.6473 9.03633 3.61548 
319 1.79086 9.0374 3.60484 
320 18.0702 9.03699 5.4352 
327 16.2874 9.03619 3.5949 
11 9.03352 0.00404167 1.80759 
3 1.81224 0.00397669 1.80819 
7 5.42171 0.00391688 1.80914 
9 7.2257 0.00434558 0.00360156 
218 5.42101 1.81445 14.4611 
254 1.83265 7.24634 16.2816 
253 0.00924069 7.23117 14.4586 
252 14.4628 5.43005 16.2708 
234 1.81332 5.43181 14.4647 
251 16.2694 3.62452 16.2698 
250 16.2686 5.4287 14.4643 
249 14.4587 3.62083 14.4649 
248 10.8348 5.43209 16.2704 
247 12.649 3.62373 16.27 
246 12.6493 5.42713 14.4646 
245 10.8409 3.62096 14.4645 
244 7.21663 5.43812 16.2703 
243 9.02849 3.62626 16.2706 
242 9.03204 5.42802 14.462 
241 7.22733 3.6218 14.4613 
240 3.62327 5.45702 16.2796 
239 5.41746 3.62907 16.2682 
238 5.42175 5.42522 14.4512 
237 3.61594 3.62571 14.4628 
236 0.0105293 5.44187 16.2756 
235 1.81496 3.62837 16.268 
233 0.00584507 3.62404 14.4653 
232 14.4585 1.81397 16.2693 
255 3.61439 7.23196 14.453 
230 16.2663 1.8127 14.4645 
164 1.80736 1.80862 10.8464 
228 10.8402 1.81512 16.2697 
166 18.0713 1.81116 12.6569 
226 12.6501 1.81248 14.465 
168 5.42257 1.80753 10.8449 
262 16.2745 7.23748 16.2749 
170 3.61505 1.81166 12.6543 
224 7.22486 1.81479 16.2674 
172 9.03896 1.80821 10.8466 
256 5.43071 7.24753 16.2205 
174 7.22978 1.81068 12.6543 
222 9.03468 1.81324 14.4635 
176 12.6523 1.80906 10.8478 
257 7.23441 7.23458 14.4432 
178 10.8443 1.81043 12.6569 
220 3.61667 1.81596 16.2682 
180 16.2638 1.80924 10.8476 
258 9.01419 7.23959 16.2744 
182 14.4582 1.81054 12.6577 
183 18.0692 3.61477 10.846 
184 1.80696 5.42052 10.8417 
185 1.80899 3.61882 12.6545 
186 0.00363021 5.42354 12.6527 
187 3.61429 3.61392 10.8428 
188 5.42322 5.4201 10.8401 
189 5.42225 3.61622 12.6497 
190 3.61446 5.42302 12.6465 
191 7.23161 3.61348 10.8432 
192 9.04066 5.42106 10.8427 
193 9.03737 3.61717 12.654 
194 7.23163 5.42195 12.6464 
195 10.8464 3.615 10.8465 
196 12.6524 5.42229 10.8468 
197 12.651 3.61756 12.6571 
198 10.8439 5.42396 12.6549 
199 14.4579 3.61574 10.8474 
200 16.2626 5.42158 10.8462 
201 16.265 3.61804 12.657 
202 14.4578 5.42429 12.6567 
203 18.0679 7.22869 10.8427 
204 1.8086 7.22893 12.6445 
205 3.61514 7.22857 10.839 
206 5.42311 7.22761 12.6415 
207 7.23296 7.22859 10.8395 
208 9.04061 7.23083 12.6465 
209 10.8483 7.22963 10.8439 
210 12.65 7.23062 12.6566 
211 14.4565 7.22917 10.8468 
212 16.2652 7.22965 12.6527 
261 14.4613 7.23219 14.4637 
214 1.8111 1.81393 14.4621 
260 12.6522 7.2326 16.2683 
216 0.00676608 1.81297 16.2668 
259 10.837 7.23262 14.4642 
223 9.03353 0.00413562 16.2679 
221 7.22795 0.00400858 14.4615 
219 5.42107 0.0039356 16.2664 
217 3.61596 0.00369891 14.4612 
215 1.81214 0.00398424 16.2667 
425 18.0698 9.03707 12.6478 
225 10.8427 0.00354401 14.4644 
475 0.013137 9.03319 16.2568 
227 12.6497 0.00359965 16.2695 
263 14.458 9.03671 12.6541 
482 16.2678 9.03589 14.4588 
264 16.2615 9.03716 10.8445 
483 14.4672 9.03582 16.2745 
142 10.8392 9.03529 16.2657 
266 12.6519 9.03743 10.847 
160 12.6525 9.03628 14.4635 
2 1.81453 1.81565 18.0716 
134 18.0666 9.03746 9.03774 
158 1.80624 7.22864 9.03776 
133 16.2608 7.22874 9.03767 
18 16.266 1.81099 18.0716 
21 0.00419319 3.61696 18.0716 
30 9.00929 5.44887 18.0716 
126 9.03263 9.03238 18.0717 
47 10.8398 7.2324 18.0716 
275 12.6477 9.03606 18.0714 
1 0.00689251 0.00421704 18.0716 
397 7.23152 16.266 9.03716 
270 10.8467 16.2654 9.03716 
398 12.6531 14.459 9.03669 
396 9.0403 14.4607 9.03713 
273 16.264 16.2634 7.22584 
274 7.20016 9.03774 1.80163 
395 14.4579 12.6522 9.03593 
326 10.8417 9.03755 5.42116 
138 1.80702 18.0706 9.0368 
109 14.4582 18.071 7.22616 
279 0.0122644 10.8071 0.0280796 
280 1.82935 12.6139 0.00926837 
281 1.80199 10.8073 1.80641 
282 0.0120221 12.6507 1.80472 
283 3.6624 10.7476 0.00773684 
284 5.4159 12.6438 0.00479164 
285 5.42654 10.8156 1.80171 
286 3.61614 12.6172 1.80011 
272 3.64423 9.04774 1.85766 
400 3.615 9.03805 9.03735 
289 9.02433 10.8351 1.80493 
290 7.2218 12.6385 1.80486 
136 10.8507 9.03795 9.03626 
292 12.6522 12.6438 0.00479044 
293 12.6477 10.8416 1.8089 
294 10.8374 12.6447 1.80649 
295 14.4653 10.835 0.00850737 
296 16.2747 12.6361 0.0090642 
297 16.2882 10.8183 1.80852 
298 14.4676 12.6381 1.80766 
135 7.23222 9.0379 9.03621 
423 14.4583 16.2647 9.03674 
301 1.81777 14.4477 1.80528 
302 0.00794073 16.2606 1.80642 
303 3.61571 14.4498 0.00490657 
304 5.42079 16.2613 0.00376202 
305 5.41768 14.4489 1.80919 
306 3.61713 16.2626 1.80921 
307 7.22424 14.4523 0.00368699 
308 9.0328 16.2624 0.00356645 
309 9.03111 14.4514 1.80642 
310 7.22602 16.2617 1.80868 
311 10.8383 14.4495 0.00365824 
312 12.6494 16.26 0.00369725 
313 12.6519 14.4502 1.80654 
314 10.8416 16.2609 1.80652 
315 14.4618 14.4501 0.00489199 
422 16.2631 14.4584 9.0359 
317 16.269 14.4536 1.80584 
318 14.4586 16.262 1.806 
140 5.42277 18.0698 9.0371 
107 10.846 18.071 7.22671 
321 5.43225 9.0438 3.65642 
322 3.60505 9.03782 5.42555 
323 9.02746 9.03794 3.61266 
324 7.23735 9.03969 5.43839 
417 3.61452 16.266 9.03674 
393 10.8482 12.6535 9.03681 
105 7.2308 18.0705 7.22758 
392 12.6538 10.8454 9.03597 
329 0.00698869 10.8194 3.59231 
330 1.80831 12.6378 3.60785 
331 1.80239 10.8405 5.42195 
332 18.0715 12.6412 5.41175 
333 3.61426 10.8444 3.62818 
334 5.4211 12.6388 3.61088 
335 5.42313 10.8495 5.43571 
336 3.613 12.6504 5.42512 
337 7.22853 10.8419 3.62014 
338 9.03315 12.6471 3.61293 
339 9.0381 10.8452 5.42516 
340 7.22996 12.6512 5.42409 
341 10.8386 10.842 3.61337 
342 12.6521 12.6461 3.61096 
343 12.6531 10.8425 5.41744 
344 10.8451 12.6504 5.41922 
345 14.4649 10.8373 3.60921 
346 16.2729 12.6408 3.60661 
347 16.2703 10.8387 5.41418 
348 14.4616 12.647 5.41525 
349 0.00647277 14.4544 3.61131 
350 1.81205 16.261 3.61234 
351 1.80801 14.453 5.41776 
352 18.0714 16.2632 5.41844 
353 3.61548 14.4454 3.61006 
354 5.42111 16.2611 3.61428 
355 5.42172 14.4536 5.41961 
356 3.61542 16.2607 5.41872 
357 7.22659 14.4519 3.61258 
358 9.03498 16.2623 3.612 
359 9.03733 14.457 5.41943 
360 7.22938 16.2631 5.41926 
361 10.8428 14.454 3.61119 
362 12.6511 16.2619 3.61028 
363 12.6528 14.4557 5.41692 
364 10.8449 16.2638 5.41767 
365 14.4611 14.4522 3.60955 
366 16.2663 16.2627 3.61091 
367 16.2665 14.4537 5.41562 
368 14.4588 16.2627 5.41676 
369 1.80637 9.03768 7.23569 
370 5.42082 9.03797 7.23162 
371 14.4589 14.457 7.22517 
372 12.6527 16.2644 7.22614 
373 10.8468 14.4589 7.22699 
374 18.0678 10.8459 7.23281 
375 1.80533 12.6513 7.22868 
376 3.61195 10.8456 7.23184 
377 5.42263 12.6552 7.2335 
378 7.23316 10.8479 7.23554 
379 9.04046 12.6538 7.22964 
380 10.8484 10.8456 7.2284 
381 12.6538 12.6513 7.22578 
382 14.4596 10.8436 7.22476 
383 16.2644 12.6497 7.22496 
384 18.0693 14.4555 7.22457 
385 1.80748 16.2635 7.22675 
386 3.61408 14.4591 7.22894 
387 5.42264 16.2645 7.22701 
388 7.23133 14.46 7.22865 
389 9.03894 16.2652 7.22721 
390 9.04279 10.8474 9.03692 
391 7.23314 12.656 9.03676 
144 12.6527 18.071 9.03708 
101 18.0697 18.0706 7.22723 
416 5.42323 14.4623 9.03665 
146 16.2636 18.0709 9.0368 
69 16.2644 18.0708 5.41815 
67 14.4577 18.0712 3.61078 
65 12.6516 18.0713 5.41713 
415 18.069 16.2643 9.03612 
19 16.2669 18.0709 1.80669 
51 0.00480052 18.0705 3.61237 
53 1.80962 18.0702 5.4198 
61 9.0372 18.0714 5.41855 
57 5.4221 18.0715 5.42024 
127 9.04284 9.03832 7.23547 
130 9.03934 18.0706 9.03726 
103 3.61473 18.0702 7.22724 
414 1.80645 14.4599 9.03589 
405 18.0676 12.6537 9.03732 
406 5.423 10.8467 9.03593 
407 3.61387 12.6546 9.0359 
399 14.4595 16.2606 16.2699 
499 10.8389 12.6439 16.2693 
401 16.271 14.4488 16.2723 
402 16.267 16.2608 14.4656 
403 14.46 14.4534 14.466 
231 16.2671 18.071 16.2682 
181 16.265 18.0709 12.6577 
179 14.4583 18.0711 10.8482 
177 12.6516 18.0714 12.6579 
408 5.42142 16.2618 14.4611 
409 3.6169 14.447 14.4652 
410 0.00795842 16.2601 16.2688 
411 1.81578 14.4427 16.2728 
412 1.81132 16.259 14.4641 
413 0.00640269 14.4492 14.4679 
175 10.8459 18.0711 10.8479 
173 9.03718 18.0715 12.6564 
213 0.00486732 18.0707 14.463 
169 5.42209 18.0717 12.6547 
418 14.4629 12.643 16.2714 
419 16.2745 10.8335 16.2744 
420 16.2693 12.6451 14.4666 
421 14.4616 10.8407 14.4643 
167 3.61469 18.0704 10.8471 
165 1.80907 18.0704 12.6561 
424 1.80614 9.03773 10.8402 
171 7.23088 18.0706 10.847 
426 5.42417 9.03796 10.8396 
427 3.61361 9.03789 12.6401 
428 10.8411 16.2613 16.269 
429 12.6505 14.4517 16.2698 
430 12.6509 16.2625 14.4652 
431 10.8423 14.4542 14.4643 
432 7.22658 16.2624 16.2669 
433 9.03092 14.4506 16.269 
434 18.0677 10.846 10.843 
435 1.80702 12.6544 10.8426 
436 1.80778 10.8463 12.645 
437 18.0713 12.6508 12.6533 
438 3.61482 10.8474 10.8396 
439 5.42387 12.656 10.8394 
440 5.42498 10.8504 12.6379 
441 3.616 12.6535 12.6474 
442 7.23392 10.8479 10.8382 
443 9.04047 12.6537 10.8448 
444 9.0381 10.8447 12.6506 
445 7.23053 12.6512 12.6509 
446 10.8477 10.8457 10.8455 
447 12.6527 12.6521 10.8473 
448 12.6515 10.8435 12.6565 
449 10.8446 12.6504 12.6558 
450 14.4568 10.8452 10.8467 
451 16.2626 12.6527 10.8464 
452 16.2647 10.8442 12.6531 
453 14.4588 12.6499 12.6574 
454 18.0692 14.4591 10.8464 
455 1.80754 16.2645 10.8469 
456 1.80903 14.4553 12.6557 
457 18.0714 16.2619 12.6578 
458 3.61493 14.4605 10.8439 
459 5.42289 16.2649 10.8472 
460 5.42284 14.4547 12.6549 
461 3.61555 16.2615 12.6561 
462 7.23168 14.4602 10.8456 
463 9.03894 16.2653 10.8474 
464 9.03731 14.4569 12.6556 
465 7.22966 16.2634 12.6556 
466 10.8465 14.4591 10.8473 
467 12.6525 16.2648 10.8481 
468 12.6519 14.4568 12.6576 
469 10.8446 16.2641 12.6572 
470 14.4582 14.4583 10.8478 
471 16.2639 16.2643 10.8479 
472 16.2654 14.4558 12.6581 
473 14.4587 16.2635 12.6582 
474 1.80978 9.03753 14.4469 
229 14.4586 18.0713 14.4651 
476 5.42717 9.04385 14.4218 
498 12.6523 10.8397 16.2688 
478 9.03495 16.2624 14.4632 
479 7.2271 14.452 14.4629 
480 3.61622 16.261 16.2667 
481 5.4195 14.4509 16.2672 
163 18.0697 18.0707 10.8476 
265 10.8433 9.03754 12.655 
484 0.00689208 10.8421 14.4587 
485 1.81192 12.6428 14.4646 
486 1.81791 10.8266 16.2756 
487 0.0120177 12.6309 16.2809 
488 3.61803 10.8483 14.4447 
489 5.42236 12.6396 14.4648 
490 5.42115 10.811 16.277 
491 3.62212 12.6237 16.2784 
492 7.2264 10.841 14.4563 
493 9.03302 12.6462 14.4629 
494 9.02453 10.8351 16.2699 
495 7.21977 12.637 16.2711 
496 10.8406 10.8413 14.4629 
497 12.6513 12.6472 14.4646 
267 9.04287 9.03832 10.8394 
268 7.236 9.03969 12.6377 
161 7.20058 9.03791 16.2734 
162 9.0277 9.03797 14.4625 
477 3.62313 9.04722 16.2228 
287 7.19771 10.8106 18.0716 
288 9.02167 12.6355 18.0715 
291 10.8391 10.8395 18.0716 
299 0.0142393 14.4473 18.0716 
300 1.81308 16.2624 18.0716 
316 16.2695 16.261 18.0716 
394 16.2609 10.8457 9.03766 
5 3.61717 18.0717 18.0716 
17 14.4576 18.0711 18.0716 
404 1.8061 10.8467 9.03775 
