LAMMPS data file via write_data, version 16 Mar 2018, timestep = 0

499 atoms
1 atom types

3.2842038077621153e-03 1.8071715796192262e+01 xlo xhi
3.2842038077621153e-03 1.8071715796192262e+01 ylo yhi
3.2842038077621153e-03 1.8071715796192262e+01 zlo zhi

Masses

1 63.55

Atoms # atomic

271 1 3.4981103481091957e+00 7.1258536218777193e+00 9.9670729442368766e-03 0 0 0
15 1 1.2649086616145754e+01 3.5564605243934011e-03 1.8060211107275528e+00 0 0 0
159 1 5.4231200337451151e+00 7.2291030931774740e+00 9.0358869264389288e+00 0 0 0
4 1 6.6485135028031550e-03 1.8123276011573133e+00 1.8083828869258363e+00 0 0 0
137 1 1.4456179413530156e+01 9.0373207921871117e+00 9.0372264544668539e+00 0 0 0
6 1 5.4181892211474407e+00 1.8163329411924973e+00 3.7193929507145537e-03 0 0 0
157 1 1.4457949444205273e+01 5.4221726032546647e+00 9.0358080252497892e+00 0 0 0
8 1 3.6176133205205296e+00 1.8143835940125654e+00 1.8077950304271231e+00 0 0 0
156 1 1.6263072366347469e+01 3.6155577776798813e+00 9.0357608937380061e+00 0 0 0
10 1 9.0309908943745842e+00 1.8145289416115760e+00 3.5985159277538824e-03 0 0 0
129 1 1.6261587537608815e+01 9.0371287345181877e+00 7.2310860272818260e+00 0 0 0
12 1 7.2244758677808729e+00 1.8151389857237912e+00 1.8081958594122913e+00 0 0 0
132 1 1.2654417416105595e+01 7.2295076701830636e+00 9.0358827057865820e+00 0 0 0
14 1 1.2648618960492733e+01 1.8163314182486763e+00 3.7434612253205010e-03 0 0 0
155 1 1.0848452301533614e+01 5.4212190569740013e+00 9.0367496613614620e+00 0 0 0
16 1 1.0840647809888431e+01 1.8155178522841826e+00 1.8059270954088071e+00 0 0 0
131 1 9.0419309898099325e+00 7.2287368334579885e+00 9.0369175236414154e+00 0 0 0
128 1 1.2655068295237184e+01 9.0374225524628731e+00 7.2243628478477744e+00 0 0 0
154 1 1.2653124938760623e+01 3.6150760461485669e+00 9.0366015917549305e+00 0 0 0
20 1 1.4457552485672840e+01 1.8123627702921719e+00 1.8066990367264313e+00 0 0 0
59 1 7.2278398148600118e+00 3.8506092226135991e-03 3.6137047813718635e+00 0 0 0
22 1 1.8012090233388078e+00 5.4287523867716443e+00 9.0493219038752636e-03 0 0 0
23 1 1.8167530034688377e+00 3.6229335487380085e+00 1.8102447671580628e+00 0 0 0
24 1 1.0264999098211302e-02 5.4210815087236481e+00 1.8102307485108142e+00 0 0 0
25 1 3.6152868290945239e+00 3.6407439802769739e+00 4.9124410369257455e-03 0 0 0
26 1 5.4030241648829964e+00 5.4512422078386864e+00 5.1397251522600851e-03 0 0 0
27 1 5.4161396503023456e+00 3.6302708760156439e+00 1.8084496234450178e+00 0 0 0
28 1 3.6179119086640981e+00 5.4602662309426009e+00 1.8008153538732732e+00 0 0 0
29 1 7.2190477725562960e+00 3.6263480986946908e+00 3.7390412208767065e-03 0 0 0
63 1 1.0842888404657614e+01 3.4942037200060838e-03 3.6108135511808594e+00 0 0 0
31 1 9.0285636276297918e+00 3.6255297432819384e+00 1.8049984268326693e+00 0 0 0
32 1 7.2183192349648557e+00 5.4369382171845375e+00 1.8057839909795455e+00 0 0 0
33 1 1.0834237056750341e+01 3.6290042063236800e+00 3.7389651711063252e-03 0 0 0
34 1 1.2651688189238765e+01 5.4293829537487923e+00 4.8794529315078616e-03 0 0 0
35 1 1.2650454929071428e+01 3.6252283115992268e+00 1.8065024778146599e+00 0 0 0
36 1 1.0833213551542567e+01 5.4312689041761804e+00 1.8054786123564464e+00 0 0 0
37 1 1.4462084868945910e+01 3.6243072937188261e+00 4.9626271419995751e-03 0 0 0
38 1 1.6276476180872983e+01 5.4365422751486756e+00 9.2100854426189292e-03 0 0 0
39 1 1.6267269641613229e+01 3.6194300365959222e+00 1.8083973271547191e+00 0 0 0
40 1 1.4467856237741779e+01 5.4352028482181991e+00 1.8083232659517521e+00 0 0 0
41 1 2.3900390154883096e-02 7.2583484142458472e+00 2.8906625387525878e-02 0 0 0
42 1 1.8202527037818557e+00 7.2628878281872700e+00 1.8005826132005764e+00 0 0 0
43 1 3.9736552302449888e+00 7.5921850210208568e+00 4.4567165458641632e-03 0 0 0
44 1 5.4341784562951680e+00 7.2438286739044617e+00 1.8568299327806006e+00 0 0 0
45 1 7.1388312192713466e+00 7.2823571172510855e+00 3.2992962028245698e-03 0 0 0
46 1 9.0140873364101495e+00 7.2395606368978047e+00 1.8004765703930428e+00 0 0 0
55 1 3.6168517588532754e+00 3.6290447978473139e-03 3.6146186671318339e+00 0 0 0
48 1 1.2647522738975162e+01 7.2307458408029106e+00 1.8094855180592364e+00 0 0 0
49 1 1.4464196900245522e+01 7.2361802678290816e+00 8.6129872677306752e-03 0 0 0
50 1 1.6289082468772015e+01 7.2535829859089818e+00 1.8079593466856172e+00 0 0 0
153 1 7.2322457900616248e+00 5.4200760442286935e+00 9.0367441871646719e+00 0 0 0
52 1 1.8117312762969571e+00 1.8115817807512502e+00 3.6145050814938564e+00 0 0 0
152 1 9.0403232414688652e+00 3.6132589545144200e+00 9.0371013614166191e+00 0 0 0
54 1 1.8071219119717707e+01 1.8095365139236184e+00 5.4194439936510550e+00 -1 0 0
151 1 3.6139824824520246e+00 5.4206608360045516e+00 9.0358086704737985e+00 0 0 0
56 1 5.4208745511604013e+00 1.8148458765947135e+00 3.6144506030061039e+00 0 0 0
125 1 1.4459517200068611e+01 7.2308083940348018e+00 7.2244336851596662e+00 0 0 0
58 1 3.6149393544709931e+00 1.8120767170640950e+00 5.4208228346714096e+00 0 0 0
124 1 1.0848922999383479e+01 7.2297274228246398e+00 7.2299009495744935e+00 0 0 0
60 1 9.0347376356507869e+00 1.8131780218194766e+00 3.6117896903397129e+00 0 0 0
150 1 5.4226839881989228e+00 3.6126214942559334e+00 9.0365874085672964e+00 0 0 0
62 1 7.2295917111765613e+00 1.8107647142215304e+00 5.4206703899976558e+00 0 0 0
149 1 1.8067440557346458e+01 5.4207387119421204e+00 9.0372724941800069e+00 -1 0 0
64 1 1.2650386522313630e+01 1.8130350352614861e+00 3.6104678253936893e+00 0 0 0
148 1 1.8061588985015975e+00 3.6140397385563365e+00 9.0357368895556700e+00 0 0 0
66 1 1.0844584651231020e+01 1.8106368123051508e+00 5.4179801600275468e+00 0 0 0
147 1 1.4458207470641373e+01 1.8090532694224266e+00 9.0366735903988697e+00 0 0 0
68 1 1.6265527711658287e+01 1.8104728245086177e+00 3.6121244948218005e+00 0 0 0
145 1 1.0846693306655210e+01 1.8081110318541800e+00 9.0371259890930755e+00 0 0 0
70 1 1.4458331263814461e+01 1.8112188857214071e+00 5.4171977888590188e+00 0 0 0
71 1 5.7316026117959495e-03 3.6183181881991477e+00 3.6142198753387458e+00 0 0 0
72 1 1.8095874052987477e+00 5.4361647332742278e+00 3.6085122502419353e+00 0 0 0
73 1 1.8077992832905190e+00 3.6208995804386412e+00 5.4192791009277306e+00 0 0 0
74 1 3.7727408249921268e-03 5.4337842255526914e+00 5.4116824654124818e+00 0 0 0
75 1 3.6146660987567438e+00 3.6263306988463189e+00 3.6133763704144961e+00 0 0 0
76 1 5.4208350539719188e+00 5.4257934870429390e+00 3.6246754115667312e+00 0 0 0
77 1 5.4213454811880277e+00 3.6170399853490363e+00 5.4250269608890420e+00 0 0 0
78 1 3.6115527992662959e+00 5.4260497220012409e+00 5.4259858810934709e+00 0 0 0
79 1 7.2269717387787731e+00 3.6217619858320065e+00 3.6142487285025093e+00 0 0 0
80 1 9.0320451064712728e+00 5.4271671085736068e+00 3.6138139081697225e+00 0 0 0
81 1 9.0374273353779522e+00 3.6170674462140164e+00 5.4210266470776176e+00 0 0 0
82 1 7.2311711401390735e+00 5.4219598595041703e+00 5.4286195015123786e+00 0 0 0
83 1 1.0841443931768126e+01 3.6211351589148424e+00 3.6109245252090871e+00 0 0 0
84 1 1.2650309558128123e+01 5.4282987482428373e+00 3.6109666367789477e+00 0 0 0
85 1 1.2651972681355547e+01 3.6186483495005968e+00 5.4173307333677823e+00 0 0 0
86 1 1.0844407791361283e+01 5.4240842565303629e+00 5.4200601266028565e+00 0 0 0
87 1 1.4459951560182027e+01 3.6220963921985079e+00 3.6107100006911828e+00 0 0 0
88 1 1.6272439538400096e+01 5.4333484941290120e+00 3.6086553002285555e+00 0 0 0
89 1 1.6266104045663994e+01 3.6202915158220246e+00 5.4165576337890062e+00 0 0 0
90 1 1.4460731968694072e+01 5.4273820458692024e+00 5.4157924220707683e+00 0 0 0
91 1 1.0082376868272291e-02 7.2555098222588086e+00 3.5895028032695553e+00 0 0 0
92 1 1.8030808675341088e+00 7.2347346274263007e+00 5.4220459330579569e+00 0 0 0
93 1 3.6113596851611334e+00 7.2356902953359006e+00 3.6198378147308987e+00 0 0 0
94 1 5.4213953320396593e+00 7.2285582373879738e+00 5.4322716610468307e+00 0 0 0
95 1 7.2360456573630962e+00 7.2337859183191204e+00 3.6329409128042673e+00 0 0 0
96 1 9.0405044992090655e+00 7.2303430768351165e+00 5.4291679606592975e+00 0 0 0
97 1 1.0834960948170471e+01 7.2320185603433949e+00 3.6121338453006473e+00 0 0 0
98 1 1.2651657718102305e+01 7.2316420538057526e+00 5.4171953027702466e+00 0 0 0
99 1 1.4464827297657546e+01 7.2358578117455066e+00 3.6095642478647543e+00 0 0 0
100 1 1.6271247080433167e+01 7.2353587965959543e+00 5.4139018619612544e+00 0 0 0
143 1 7.2314487053814727e+00 1.8066112600234363e+00 9.0371411275549054e+00 0 0 0
102 1 1.8072481306645098e+00 1.8093873165632959e+00 7.2272045048957763e+00 0 0 0
123 1 7.2322628843229531e+00 7.2286589487823685e+00 7.2342805158114816e+00 0 0 0
104 1 5.4223778581895576e+00 1.8077588385547090e+00 7.2293018461894887e+00 0 0 0
141 1 3.6141361805106693e+00 1.8068679922452600e+00 9.0366626627941127e+00 0 0 0
106 1 9.0389964105498724e+00 1.8082237243457269e+00 7.2279279958393170e+00 0 0 0
13 1 1.0841069732972139e+01 3.9943093439696042e-03 3.5782013207256744e-03 0 0 0
108 1 1.2652540239561489e+01 1.8094313379329205e+00 7.2263112550702209e+00 0 0 0
139 1 1.8068919264196044e+01 1.8090919198143900e+00 9.0359969567837126e+00 -1 0 0
110 1 1.6263895934234153e+01 1.8100970438815998e+00 7.2260211934617296e+00 0 0 0
111 1 1.8069199458369503e+01 3.6185995130931410e+00 7.2246857911925693e+00 -1 0 0
112 1 1.8051636163799845e+00 5.4236996721419981e+00 7.2293534442794760e+00 0 0 0
113 1 3.6134517258704717e+00 3.6152382173932360e+00 7.2299382210002374e+00 0 0 0
114 1 5.4220332544750143e+00 5.4208899697382238e+00 7.2327270972633704e+00 0 0 0
115 1 7.2313451390664625e+00 3.6136283510315415e+00 7.2309866437621126e+00 0 0 0
116 1 9.0406719074421620e+00 5.4210055896347322e+00 7.2316326737103624e+00 0 0 0
117 1 1.0846731172099053e+01 3.6152180515918904e+00 7.2276657560724358e+00 0 0 0
118 1 1.2653592482326296e+01 5.4231322830482558e+00 7.2260772164233762e+00 0 0 0
119 1 1.4458703498985011e+01 3.6171218130746805e+00 7.2253620232002511e+00 0 0 0
120 1 1.6264459206132141e+01 5.4247116286169046e+00 7.2248271966973201e+00 0 0 0
121 1 1.8068055071925681e+01 7.2287494978430882e+00 7.2331042756523658e+00 -1 0 0
122 1 3.6122000803156320e+00 7.2302668770330003e+00 7.2322712019979862e+00 0 0 0
269 1 1.8205800013755435e+00 9.0202512432717175e+00 2.0787207973141684e-02 0 0 0
276 1 1.0838735271975390e+01 9.0353256842474909e+00 1.8094153096638215e+00 0 0 0
277 1 1.6287971426390111e+01 9.0332341877365945e+00 2.3795202466320709e-02 0 0 0
328 1 1.4466544254188026e+01 9.0367273723658368e+00 5.4121225343967598e+00 0 0 0
278 1 1.4448136776290893e+01 9.0359306137609376e+00 1.8095350553552403e+00 0 0 0
325 1 1.2647345663744414e+01 9.0363341732541596e+00 3.6154791764220153e+00 0 0 0
319 1 1.7908556543810863e+00 9.0373964122209234e+00 3.6048371579715788e+00 0 0 0
320 1 1.8070225218153610e+01 9.0369888153287032e+00 5.4352009223653344e+00 -1 0 0
327 1 1.6287396414865000e+01 9.0361872874769151e+00 3.5948990306687794e+00 0 0 0
11 1 9.0335198378928645e+00 4.0416748330329710e-03 1.8075903725965741e+00 0 0 0
3 1 1.8122413151908305e+00 3.9766914968630829e-03 1.8081945935849146e+00 0 0 0
7 1 5.4217133107173021e+00 3.9168801610145465e-03 1.8091424056822354e+00 0 0 0
9 1 7.2256963287348013e+00 4.3455779275447526e-03 3.6015648450469515e-03 0 0 0
218 1 5.4210062075202634e+00 1.8144475087654308e+00 1.4461134131121950e+01 0 0 0
254 1 1.8326504772976848e+00 7.2463410713093479e+00 1.6281611025800785e+01 0 0 0
253 1 9.2406856835367535e-03 7.2311720100842569e+00 1.4458646296057385e+01 0 0 0
252 1 1.4462817499538442e+01 5.4300515328027386e+00 1.6270843933926912e+01 0 0 0
234 1 1.8133200433686389e+00 5.4318070741402913e+00 1.4464656725633805e+01 0 0 0
251 1 1.6269394644403008e+01 3.6245186468211044e+00 1.6269811778295722e+01 0 0 0
250 1 1.6268585174214849e+01 5.4286973843407855e+00 1.4464296837379200e+01 0 0 0
249 1 1.4458721924280562e+01 3.6208252550948701e+00 1.4464892901399997e+01 0 0 0
248 1 1.0834756362173552e+01 5.4320910886323643e+00 1.6270376217709682e+01 0 0 0
247 1 1.2648951193409168e+01 3.6237288579842963e+00 1.6269992178296111e+01 0 0 0
246 1 1.2649316791835062e+01 5.4271291810405078e+00 1.4464589645401063e+01 0 0 0
245 1 1.0840920878920388e+01 3.6209626292230452e+00 1.4464510322206788e+01 0 0 0
244 1 7.2166258670616790e+00 5.4381245432816749e+00 1.6270260301474252e+01 0 0 0
243 1 9.0284896471780680e+00 3.6262562319859204e+00 1.6270568415136765e+01 0 0 0
242 1 9.0320350205146696e+00 5.4280159757138158e+00 1.4462011628143388e+01 0 0 0
241 1 7.2273340953660714e+00 3.6217970625946951e+00 1.4461328570624408e+01 0 0 0
240 1 3.6232679878843097e+00 5.4570182523672051e+00 1.6279570692592124e+01 0 0 0
239 1 5.4174589903268311e+00 3.6290728056410808e+00 1.6268162923267077e+01 0 0 0
238 1 5.4217526918299690e+00 5.4252210726489727e+00 1.4451247300018615e+01 0 0 0
237 1 3.6159436212942695e+00 3.6257073647087270e+00 1.4462763840371277e+01 0 0 0
236 1 1.0529281085387442e-02 5.4418674667815425e+00 1.6275617892381543e+01 0 0 0
235 1 1.8149631133813509e+00 3.6283672687998396e+00 1.6268027383400320e+01 0 0 0
233 1 5.8450728499259696e-03 3.6240401063988550e+00 1.4465318287973622e+01 0 0 0
232 1 1.4458497503770596e+01 1.8139659498979790e+00 1.6269267315792874e+01 0 0 0
255 1 3.6143887815847409e+00 7.2319592275086944e+00 1.4453026603871209e+01 0 0 0
230 1 1.6266340712457186e+01 1.8127032929036289e+00 1.4464451831850221e+01 0 0 0
164 1 1.8073642081189789e+00 1.8086179315374042e+00 1.0846424307815079e+01 0 0 0
228 1 1.0840152160099084e+01 1.8151214118038779e+00 1.6269679487334191e+01 0 0 0
166 1 1.8071295006030333e+01 1.8111645075657143e+00 1.2656939975029584e+01 -1 0 0
226 1 1.2650148781719349e+01 1.8124821012165988e+00 1.4465012234056831e+01 0 0 0
168 1 5.4225732330336474e+00 1.8075270149867113e+00 1.0844914836693562e+01 0 0 0
262 1 1.6274479833153684e+01 7.2374815315449768e+00 1.6274879477033856e+01 0 0 0
170 1 3.6150502987287192e+00 1.8116623419933937e+00 1.2654309991022094e+01 0 0 0
224 1 7.2248646279717210e+00 1.8147851364174126e+00 1.6267428558226477e+01 0 0 0
172 1 9.0389635254209040e+00 1.8082109087858489e+00 1.0846639022878895e+01 0 0 0
256 1 5.4307102450245921e+00 7.2475252991750576e+00 1.6220499499452156e+01 0 0 0
174 1 7.2297797447051266e+00 1.8106832245181828e+00 1.2654260921214615e+01 0 0 0
222 1 9.0346757139434217e+00 1.8132364171126141e+00 1.4463476001372676e+01 0 0 0
176 1 1.2652302376368112e+01 1.8090648185431635e+00 1.0847845027272383e+01 0 0 0
257 1 7.2344094696774173e+00 7.2345781260482029e+00 1.4443159219516360e+01 0 0 0
178 1 1.0844291027148651e+01 1.8104272698633013e+00 1.2656896031518951e+01 0 0 0
220 1 3.6166652580562908e+00 1.8159588243671116e+00 1.6268165174377913e+01 0 0 0
180 1 1.6263831250084763e+01 1.8092423862906670e+00 1.0847569422512226e+01 0 0 0
258 1 9.0141892506965320e+00 7.2395902549704667e+00 1.6274446443636027e+01 0 0 0
182 1 1.4458234902842486e+01 1.8105438504430609e+00 1.2657748138929199e+01 0 0 0
183 1 1.8069216237142033e+01 3.6147688254210419e+00 1.0846019542243242e+01 -1 0 0
184 1 1.8069648405825571e+00 5.4205216142204282e+00 1.0841703737834555e+01 0 0 0
185 1 1.8089929483646967e+00 3.6188228261394659e+00 1.2654452263032686e+01 0 0 0
186 1 3.6302054970072106e-03 5.4235441583202562e+00 1.2652690562856662e+01 0 0 0
187 1 3.6142868346518662e+00 3.6139184765633323e+00 1.0842821368081806e+01 0 0 0
188 1 5.4232215599144364e+00 5.4201020093251149e+00 1.0840129139942448e+01 0 0 0
189 1 5.4222548976994620e+00 3.6162200954153700e+00 1.2649673249676061e+01 0 0 0
190 1 3.6144626654444267e+00 5.4230160375427321e+00 1.2646495653479379e+01 0 0 0
191 1 7.2316107532219016e+00 3.6134763533436982e+00 1.0843237404362153e+01 0 0 0
192 1 9.0406594612401001e+00 5.4210587939573918e+00 1.0842744775707285e+01 0 0 0
193 1 9.0373667064793963e+00 3.6171688039308596e+00 1.2653968387525859e+01 0 0 0
194 1 7.2316317564583263e+00 5.4219452170543381e+00 1.2646372063951910e+01 0 0 0
195 1 1.0846392527163959e+01 3.6150003609266887e+00 1.0846521392779337e+01 0 0 0
196 1 1.2652398274790270e+01 5.4222878914477768e+00 1.0846784519524268e+01 0 0 0
197 1 1.2650970407915583e+01 3.6175594041414754e+00 1.2657140763580800e+01 0 0 0
198 1 1.0843900235258126e+01 5.4239608805707960e+00 1.2654861675313684e+01 0 0 0
199 1 1.4457863760643338e+01 3.6157356235169016e+00 1.0847400591340529e+01 0 0 0
200 1 1.6262568327648282e+01 5.4215781093925957e+00 1.0846222466378206e+01 0 0 0
201 1 1.6264980850800615e+01 3.6180389820745176e+00 1.2657013195112837e+01 0 0 0
202 1 1.4457768369431864e+01 5.4242869032356644e+00 1.2656692781127633e+01 0 0 0
203 1 1.8067913938012005e+01 7.2286927782792656e+00 1.0842689806054695e+01 -1 0 0
204 1 1.8085976311772549e+00 7.2289287496757071e+00 1.2644479706877151e+01 0 0 0
205 1 3.6151437294179440e+00 7.2285716508190401e+00 1.0839022133292179e+01 0 0 0
206 1 5.4231113890621367e+00 7.2276114175654786e+00 1.2641489529259756e+01 0 0 0
207 1 7.2329613604981677e+00 7.2285924473511649e+00 1.0839507641480472e+01 0 0 0
208 1 9.0406101502569154e+00 7.2308349458558165e+00 1.2646506269757303e+01 0 0 0
209 1 1.0848299129350838e+01 7.2296282750812360e+00 1.0843886636836830e+01 0 0 0
210 1 1.2649967469395026e+01 7.2306157906273150e+00 1.2656636787285660e+01 0 0 0
211 1 1.4456501217313599e+01 7.2291746635036329e+00 1.0846801239621684e+01 0 0 0
212 1 1.6265208283408423e+01 7.2296537995272319e+00 1.2652703280907675e+01 0 0 0
261 1 1.4461289746688669e+01 7.2321898312894728e+00 1.4463737923048075e+01 0 0 0
214 1 1.8110959092732113e+00 1.8139282798043939e+00 1.4462120942789303e+01 0 0 0
260 1 1.2652210335196688e+01 7.2325995193109334e+00 1.6268273909558975e+01 0 0 0
216 1 6.7660817338399681e-03 1.8129677623750886e+00 1.6266842194449566e+01 0 0 0
259 1 1.0836984002126187e+01 7.2326185218259482e+00 1.4464154337630443e+01 0 0 0
223 1 9.0335261606043868e+00 4.1356208881850876e-03 1.6267869494194990e+01 0 0 0
221 1 7.2279536286203809e+00 4.0085841826993374e-03 1.4461538541749272e+01 0 0 0
219 1 5.4210702444748584e+00 3.9355962559568525e-03 1.6266414074321940e+01 0 0 0
217 1 3.6159609320145756e+00 3.6989066154617944e-03 1.4461238655921790e+01 0 0 0
215 1 1.8121354945031689e+00 3.9842367668256884e-03 1.6266726702615664e+01 0 0 0
425 1 1.8069757142530179e+01 9.0370662090135543e+00 1.2647842657282654e+01 -1 0 0
225 1 1.0842734011270652e+01 3.5440113915115035e-03 1.4464446501232166e+01 0 0 0
475 1 1.3137010542209658e-02 9.0331850367093693e+00 1.6256775944902852e+01 0 0 0
227 1 1.2649680808769430e+01 3.5996488976373087e-03 1.6269512161914307e+01 0 0 0
263 1 1.4457984521015385e+01 9.0367123246694874e+00 1.2654062104882534e+01 0 0 0
482 1 1.6267816168556649e+01 9.0358943446888365e+00 1.4458810472576078e+01 0 0 0
264 1 1.6261521148872589e+01 9.0371631276472648e+00 1.0844549529976135e+01 0 0 0
483 1 1.4467158229100127e+01 9.0358193967995852e+00 1.6274523457986170e+01 0 0 0
142 1 1.0839180603995732e+01 9.0352940643899355e+00 1.6265674660939606e+01 0 0 0
266 1 1.2651869702198979e+01 9.0374314136946658e+00 1.0846970878005440e+01 0 0 0
160 1 1.2652499022340844e+01 9.0362795012861863e+00 1.4463486396849701e+01 0 0 0
2 1 1.8145320295647165e+00 1.8156480635682894e+00 1.8071622896342294e+01 0 0 -1
134 1 1.8066644390937828e+01 9.0374559530335095e+00 9.0377361066233686e+00 -1 0 0
158 1 1.8062405559538701e+00 7.2286427203706580e+00 9.0377559984302547e+00 0 0 0
133 1 1.6260772573383893e+01 7.2287383699391290e+00 9.0376734556491627e+00 0 0 0
18 1 1.6265999349211878e+01 1.8109902886401887e+00 1.8071631839179890e+01 0 0 -1
21 1 4.1931857307169196e-03 3.6169645275641398e+00 1.8071563757885208e+01 0 0 -1
30 1 9.0092900213100311e+00 5.4488693349759441e+00 1.8071627915106355e+01 0 0 -1
126 1 9.0326283194918773e+00 9.0323797392270571e+00 1.8071681585218222e+01 0 0 -1
47 1 1.0839765852306501e+01 7.2323992750440587e+00 1.8071621075925325e+01 0 0 -1
275 1 1.2647732201346672e+01 9.0360594997191335e+00 1.8071406956701061e+01 0 0 -1
1 1 6.8925145046847547e-03 4.2170359001936220e-03 1.8071609916393719e+01 0 0 -1
397 1 7.2315206308593414e+00 1.6265953850871419e+01 9.0371573742980100e+00 0 0 0
270 1 1.0846673824726897e+01 1.6265399583827357e+01 9.0371603597653341e+00 0 0 0
398 1 1.2653130665464912e+01 1.4458965749312396e+01 9.0366906686253312e+00 0 0 0
396 1 9.0403034207109076e+00 1.4460664895655091e+01 9.0371299161542176e+00 0 0 0
273 1 1.6264001356786320e+01 1.6263385325076282e+01 7.2258391574665657e+00 0 0 0
274 1 7.2001584922779074e+00 9.0377431465833933e+00 1.8016339514945228e+00 0 0 0
395 1 1.4457887843751244e+01 1.2652165100889933e+01 9.0359287453588077e+00 0 0 0
326 1 1.0841719315212300e+01 9.0375516849471929e+00 5.4211600419134953e+00 0 0 0
138 1 1.8070237636081101e+00 1.8070559784749499e+01 9.0368020532795601e+00 0 -1 0
109 1 1.4458233651524239e+01 1.8071017341861289e+01 7.2261610547286477e+00 0 -1 0
279 1 1.2264448227050195e-02 1.0807109600355776e+01 2.8079630594484060e-02 0 0 0
280 1 1.8293480339054886e+00 1.2613895752828775e+01 9.2683651038771991e-03 0 0 0
281 1 1.8019857805794324e+00 1.0807314814800467e+01 1.8064100461030321e+00 0 0 0
282 1 1.2022088716944575e-02 1.2650679944252031e+01 1.8047242022340400e+00 0 0 0
283 1 3.6624016663772836e+00 1.0747564607464852e+01 7.7368384271781420e-03 0 0 0
284 1 5.4158997038765611e+00 1.2643781625037366e+01 4.7916376787275564e-03 0 0 0
285 1 5.4265393817948961e+00 1.0815578356763451e+01 1.8017136054253506e+00 0 0 0
286 1 3.6161379789052166e+00 1.2617200723004164e+01 1.8001082122775447e+00 0 0 0
272 1 3.6442265879107176e+00 9.0477357016470776e+00 1.8576583056647691e+00 0 0 0
400 1 3.6149972674764377e+00 9.0380500799500254e+00 9.0373469445944608e+00 0 0 0
289 1 9.0243348457420272e+00 1.0835067534077631e+01 1.8049271649208505e+00 0 0 0
290 1 7.2217998395084626e+00 1.2638488545202975e+01 1.8048583837124659e+00 0 0 0
136 1 1.0850742279396565e+01 9.0379488013657436e+00 9.0362618687616063e+00 0 0 0
292 1 1.2652173881417948e+01 1.2643816556541863e+01 4.7904447426288625e-03 0 0 0
293 1 1.2647650529469901e+01 1.0841617912148152e+01 1.8088957391980769e+00 0 0 0
294 1 1.0837358424601172e+01 1.2644713533141658e+01 1.8064938399444954e+00 0 0 0
295 1 1.4465267006519102e+01 1.0835047730421691e+01 8.5073707503291011e-03 0 0 0
296 1 1.6274733689662519e+01 1.2636128456378170e+01 9.0642031592067067e-03 0 0 0
297 1 1.6288249869203618e+01 1.0818266826080810e+01 1.8085212923066245e+00 0 0 0
298 1 1.4467624188606429e+01 1.2638069820910857e+01 1.8076598720630233e+00 0 0 0
135 1 7.2322200330013287e+00 9.0379005577596896e+00 9.0362061420970097e+00 0 0 0
423 1 1.4458264633604555e+01 1.6264666817014415e+01 9.0367434580274590e+00 0 0 0
301 1 1.8177704485006891e+00 1.4447685721506415e+01 1.8052767759205681e+00 0 0 0
302 1 7.9407320907801220e-03 1.6260614982018517e+01 1.8064203280712725e+00 0 0 0
303 1 3.6157124963674789e+00 1.4449761035237353e+01 4.9065725467681027e-03 0 0 0
304 1 5.4207853880583734e+00 1.6261323763794955e+01 3.7620181973824110e-03 0 0 0
305 1 5.4176813683596849e+00 1.4448947598137893e+01 1.8091929672703777e+00 0 0 0
306 1 3.6171314122418297e+00 1.6262564590394874e+01 1.8092077983016399e+00 0 0 0
307 1 7.2242390245611992e+00 1.4452267054104251e+01 3.6869888957353743e-03 0 0 0
308 1 9.0328014326482933e+00 1.6262384393656973e+01 3.5664517934636329e-03 0 0 0
309 1 9.0311067758746741e+00 1.4451356333042488e+01 1.8064248447447926e+00 0 0 0
310 1 7.2260191930565600e+00 1.6261732759484850e+01 1.8086760813082148e+00 0 0 0
311 1 1.0838317867735938e+01 1.4449477401371238e+01 3.6582384440919523e-03 0 0 0
312 1 1.2649391587907806e+01 1.6259991488993627e+01 3.6972468837727620e-03 0 0 0
313 1 1.2651891669233029e+01 1.4450235592833595e+01 1.8065403544812950e+00 0 0 0
314 1 1.0841567677711238e+01 1.6260862015258439e+01 1.8065236041087078e+00 0 0 0
315 1 1.4461793550422392e+01 1.4450071300705440e+01 4.8919897464734666e-03 0 0 0
422 1 1.6263109897039620e+01 1.4458420637498952e+01 9.0358991582394257e+00 0 0 0
317 1 1.6269031967890612e+01 1.4453566573962329e+01 1.8058369628286211e+00 0 0 0
318 1 1.4458611742616974e+01 1.6262035272500100e+01 1.8059951336493925e+00 0 0 0
140 1 5.4227673307376261e+00 1.8069788902468026e+01 9.0371039186751361e+00 0 -1 0
107 1 1.0845998952987767e+01 1.8071023823332354e+01 7.2267053173205698e+00 0 -1 0
321 1 5.4322464619519497e+00 9.0437962584610911e+00 3.6564185613084779e+00 0 0 0
322 1 3.6050470259330787e+00 9.0378183413404756e+00 5.4255546828330408e+00 0 0 0
323 1 9.0274613519172817e+00 9.0379432549392380e+00 3.6126603477391170e+00 0 0 0
324 1 7.2373515773532526e+00 9.0396851687234250e+00 5.4383947167793272e+00 0 0 0
417 1 3.6145158131355557e+00 1.6266029198620274e+01 9.0367421816601947e+00 0 0 0
393 1 1.0848216433704097e+01 1.2653490185751055e+01 9.0368108155301581e+00 0 0 0
105 1 7.2308045735707260e+00 1.8070535795673209e+01 7.2275793695054018e+00 0 -1 0
392 1 1.2653842889090637e+01 1.0845396470374439e+01 9.0359696535833827e+00 0 0 0
329 1 6.9886883845207137e-03 1.0819411595329418e+01 3.5923112957244077e+00 0 0 0
330 1 1.8083078735568408e+00 1.2637750512500151e+01 3.6078478939218450e+00 0 0 0
331 1 1.8023886327694694e+00 1.0840501614727859e+01 5.4219505094923077e+00 0 0 0
332 1 1.8071469883801257e+01 1.2641209269979658e+01 5.4117501750954196e+00 -1 0 0
333 1 3.6142645030426670e+00 1.0844422815272162e+01 3.6281760016313327e+00 0 0 0
334 1 5.4211030320805760e+00 1.2638774104369707e+01 3.6108768738284476e+00 0 0 0
335 1 5.4231307505933541e+00 1.0849483903819671e+01 5.4357063490317188e+00 0 0 0
336 1 3.6130040611941809e+00 1.2650382502842152e+01 5.4251244843615058e+00 0 0 0
337 1 7.2285279953698200e+00 1.0841886145488418e+01 3.6201375813818450e+00 0 0 0
338 1 9.0331453109527295e+00 1.2647124330350628e+01 3.6129333093064768e+00 0 0 0
339 1 9.0380999635430364e+00 1.0845241312011259e+01 5.4251556823600247e+00 0 0 0
340 1 7.2299605879506474e+00 1.2651182023530863e+01 5.4240855561667534e+00 0 0 0
341 1 1.0838564720013443e+01 1.0841982873426058e+01 3.6133723249254746e+00 0 0 0
342 1 1.2652116531128769e+01 1.2646103544245031e+01 3.6109617111640366e+00 0 0 0
343 1 1.2653086207375390e+01 1.0842549187898575e+01 5.4174370252096073e+00 0 0 0
344 1 1.0845113211658770e+01 1.2650358727201450e+01 5.4192239403845939e+00 0 0 0
345 1 1.4464911868856817e+01 1.0837288291746244e+01 3.6092112086613377e+00 0 0 0
346 1 1.6272931774144265e+01 1.2640846675958253e+01 3.6066105313501362e+00 0 0 0
347 1 1.6270272193723990e+01 1.0838732497713773e+01 5.4141773858027546e+00 0 0 0
348 1 1.4461608573654336e+01 1.2647018907889107e+01 5.4152472299348986e+00 0 0 0
349 1 6.4727727333698734e-03 1.4454381887242281e+01 3.6113056116772628e+00 0 0 0
350 1 1.8120481229839664e+00 1.6261003853120439e+01 3.6123441145729660e+00 0 0 0
351 1 1.8080081481744352e+00 1.4452985195188111e+01 5.4177639915947644e+00 0 0 0
352 1 1.8071422631025339e+01 1.6263203002556725e+01 5.4184421152726339e+00 -1 0 0
353 1 3.6154830372848483e+00 1.4445382670936809e+01 3.6100602993045472e+00 0 0 0
354 1 5.4211124546386964e+00 1.6261058994906978e+01 3.6142782160476745e+00 0 0 0
355 1 5.4217152559221056e+00 1.4453644052863792e+01 5.4196052271189572e+00 0 0 0
356 1 3.6154178025392736e+00 1.6260650049961534e+01 5.4187175070637235e+00 0 0 0
357 1 7.2265945066143686e+00 1.4451850343887445e+01 3.6125849140128219e+00 0 0 0
358 1 9.0349763594791899e+00 1.6262295871528075e+01 3.6120046806793416e+00 0 0 0
359 1 9.0373330522125599e+00 1.4456969136870452e+01 5.4194286263248417e+00 0 0 0
360 1 7.2293802434074168e+00 1.6263111776440738e+01 5.4192580689901515e+00 0 0 0
361 1 1.0842807676683359e+01 1.4454008468647139e+01 3.6111850726628703e+00 0 0 0
362 1 1.2651143730443790e+01 1.6261896823341537e+01 3.6102766014155359e+00 0 0 0
363 1 1.2652836826841082e+01 1.4455731743002453e+01 5.4169157642279755e+00 0 0 0
364 1 1.0844881633444654e+01 1.6263780179990622e+01 5.4176733752517627e+00 0 0 0
365 1 1.4461120117624283e+01 1.4452205929610731e+01 3.6095457492548504e+00 0 0 0
366 1 1.6266275392140685e+01 1.6262724761673436e+01 3.6109076792878758e+00 0 0 0
367 1 1.6266503555873854e+01 1.4453674128094868e+01 5.4156152641376680e+00 0 0 0
368 1 1.4458757775011412e+01 1.6262680443566971e+01 5.4167645477561113e+00 0 0 0
369 1 1.8063663020450336e+00 9.0376785344833106e+00 7.2356886368094395e+00 0 0 0
370 1 5.4208169452029820e+00 9.0379738021099225e+00 7.2316244945550663e+00 0 0 0
371 1 1.4458949186051791e+01 1.4456964265059002e+01 7.2251749467146613e+00 0 0 0
372 1 1.2652695401712050e+01 1.6264429688661206e+01 7.2261381573731525e+00 0 0 0
373 1 1.0846798324586970e+01 1.4458857442364705e+01 7.2269875863180646e+00 0 0 0
374 1 1.8067809859063594e+01 1.0845942423373522e+01 7.2328080861127626e+00 -1 0 0
375 1 1.8053273593406858e+00 1.2651289713866438e+01 7.2286765214793984e+00 0 0 0
376 1 3.6119512099532791e+00 1.0845644583194096e+01 7.2318366339983093e+00 0 0 0
377 1 5.4226341164935787e+00 1.2655208208014074e+01 7.2334991275157545e+00 0 0 0
378 1 7.2331632044715048e+00 1.0847892971260126e+01 7.2355411741315034e+00 0 0 0
379 1 9.0404617007967332e+00 1.2653794663802252e+01 7.2296386187217738e+00 0 0 0
380 1 1.0848387690323221e+01 1.0845580707089972e+01 7.2284038892604539e+00 0 0 0
381 1 1.2653832505201496e+01 1.2651331526160876e+01 7.2257841778148366e+00 0 0 0
382 1 1.4459608613919849e+01 1.0843592854359095e+01 7.2247561542704268e+00 0 0 0
383 1 1.6264368712565425e+01 1.2649742321775483e+01 7.2249577953753281e+00 0 0 0
384 1 1.8069295631858118e+01 1.4455467364995261e+01 7.2245688106453150e+00 -1 0 0
385 1 1.8074820194723833e+00 1.6263502342142516e+01 7.2267514673938926e+00 0 0 0
386 1 3.6140839643308595e+00 1.4459147582098618e+01 7.2289414459949546e+00 0 0 0
387 1 5.4226392477355212e+00 1.6264471323425774e+01 7.2270111054524895e+00 0 0 0
388 1 7.2313278898205224e+00 1.4459993046124298e+01 7.2286517341329581e+00 0 0 0
389 1 9.0389392344258361e+00 1.6265159755469170e+01 7.2272120297229572e+00 0 0 0
390 1 9.0427935107588162e+00 1.0847365321085210e+01 9.0369157543614183e+00 0 0 0
391 1 7.2331426689016727e+00 1.2655959196678303e+01 9.0367640249236345e+00 0 0 0
144 1 1.2652679031435133e+01 1.8071007641878193e+01 9.0370810988410533e+00 0 -1 0
101 1 1.8069718546029325e+01 1.8070576770901226e+01 7.2272295320683151e+00 -1 -1 0