500
Atoms. Timestep: 0
1 6.05885e-08 6.05885e-08 6.05885e-08
1 1.8075 1.8075 6.05885e-08
1 1.8075 6.05885e-08 1.8075
1 6.05885e-08 1.8075 1.8075
1 3.615 6.05885e-08 6.05885e-08
1 5.4225 1.8075 6.05885e-08
1 5.4225 6.05885e-08 1.8075
1 3.615 1.8075 1.8075
1 7.23 6.05885e-08 6.05885e-08
1 7.23 1.8075 1.8075
1 6.05885e-08 3.615 6.05885e-08
1 1.8075 5.4225 6.05885e-08
1 1.8075 3.615 1.8075
1 6.05885e-08 5.4225 1.8075
1 3.615 3.615 6.05885e-08
1 5.4225 5.4225 6.05885e-08
1 5.4225 3.615 1.8075
1 3.615 5.4225 1.8075
1 7.23 3.615 6.05885e-08
1 7.23 5.4225 1.8075
1 6.05885e-08 7.23 6.05885e-08
1 1.8075 7.23 1.8075
1 3.615 7.23 6.05885e-08
1 5.4225 7.23 1.8075
1 7.23 7.23 6.05885e-08
1 9.0375 9.0375 6.05885e-08
1 6.05885e-08 6.05885e-08 3.615
1 1.8075 1.8075 3.615
1 1.8075 6.05885e-08 5.4225
1 6.05885e-08 1.8075 5.4225
1 3.615 6.05885e-08 3.615
1 5.4225 1.8075 3.615
1 5.4225 6.05885e-08 5.4225
1 3.615 1.8075 5.4225
1 7.23 6.05885e-08 3.615
1 7.23 1.8075 5.4225
1 6.05885e-08 3.615 3.615
1 1.8075 5.4225 3.615
1 1.8075 3.615 5.4225
1 6.05885e-08 5.4225 5.4225
1 3.615 3.615 3.615
1 5.4225 5.4225 3.615
1 5.4225 3.615 5.4225
1 3.615 5.4225 5.4225
1 7.23 3.615 3.615
1 7.23 5.4225 5.4225
1 6.05885e-08 7.23 3.615
1 1.8075 7.23 5.4225
1 3.615 7.23 3.615
1 5.4225 7.23 5.4225
1 7.23 7.23 3.615
1 6.05885e-08 6.05885e-08 7.23
1 1.8075 1.8075 7.23
1 3.615 6.05885e-08 7.23
1 5.4225 1.8075 7.23
1 7.23 6.05885e-08 7.23
1 9.0375 6.05885e-08 9.0375
1 6.05885e-08 3.615 7.23
1 1.8075 5.4225 7.23
1 3.615 3.615 7.23
1 5.4225 5.4225 7.23
1 7.23 3.615 7.23
1 6.05885e-08 7.23 7.23
1 6.05885e-08 9.0375 9.0375
1 3.615 7.23 7.23
1 7.23 7.23 7.23
1 9.0375 9.0375 7.23
1 9.0375 7.23 9.0375
1 7.23 9.0375 9.0375
1 1.8075 6.05885e-08 9.0375
1 6.05885e-08 1.8075 9.0375
1 5.4225 6.05885e-08 9.0375
1 3.615 1.8075 9.0375
1 7.23 1.8075 9.0375
1 1.8075 3.615 9.0375
1 6.05885e-08 5.4225 9.0375
1 5.4225 3.615 9.0375
1 3.615 5.4225 9.0375
1 7.23 5.4225 9.0375
1 1.8075 7.23 9.0375
1 5.4225 7.23 9.0375
1 6.05885e-08 6.05885e-08 10.845
1 1.8075 1.8075 10.845
1 1.8075 6.05885e-08 12.6525
1 6.05885e-08 1.8075 12.6525
1 3.615 6.05885e-08 10.845
1 5.4225 1.8075 10.845
1 5.4225 6.05885e-08 12.6525
1 3.615 1.8075 12.6525
1 7.23 6.05885e-08 10.845
1 7.23 1.8075 12.6525
1 6.05885e-08 3.615 10.845
1 1.8075 5.4225 10.845
1 1.8075 3.615 12.6525
1 6.05885e-08 5.4225 12.6525
1 3.615 3.615 10.845
1 5.4225 5.4225 10.845
1 5.4225 3.615 12.6525
1 3.615 5.4225 12.6525
1 7.23 3.615 10.845
1 7.23 5.4225 12.6525
1 6.05885e-08 7.23 10.845
1 1.8075 7.23 12.6525
1 3.615 7.23 10.845
1 5.4225 7.23 12.6525
1 7.23 7.23 10.845
1 9.0375 9.0375 10.845
1 9.0375 7.23 12.6525
1 7.23 9.0375 12.6525
1 6.05885e-08 6.05885e-08 14.46
1 1.8075 1.8075 14.46
1 1.8075 6.05885e-08 16.2675
1 6.05885e-08 1.8075 16.2675
1 3.615 6.05885e-08 14.46
1 5.4225 1.8075 14.46
1 5.4225 6.05885e-08 16.2675
1 3.615 1.8075 16.2675
1 7.23 6.05885e-08 14.46
1 7.23 1.8075 16.2675
1 6.05885e-08 3.615 14.46
1 1.8075 5.4225 14.46
1 1.8075 3.615 16.2675
1 6.05885e-08 5.4225 16.2675
1 3.615 3.615 14.46
1 5.4225 5.4225 14.46
1 5.4225 3.615 16.2675
1 3.615 5.4225 16.2675
1 7.23 3.615 14.46
1 7.23 5.4225 16.2675
1 6.05885e-08 7.23 14.46
1 1.8075 7.23 16.2675
1 3.615 7.23 14.46
1 5.4225 7.23 16.2675
1 7.23 7.23 14.46
1 9.0375 9.0375 14.46
1 1.8075 9.0375 6.05885e-08
1 6.05885e-08 9.0375 1.8075
1 5.4225 9.0375 6.05885e-08
1 3.615 9.0375 1.8075
1 7.23 9.0375 1.8075
1 6.05885e-08 10.845 6.05885e-08
1 1.8075 12.6525 6.05885e-08
1 1.8075 10.845 1.8075
1 6.05885e-08 12.6525 1.8075
1 3.615 10.845 6.05885e-08
1 5.4225 12.6525 6.05885e-08
1 5.4225 10.845 1.8075
1 3.615 12.6525 1.8075
1 7.23 10.845 6.05885e-08
1 7.23 12.6525 1.8075
1 6.05885e-08 14.46 6.05885e-08
1 1.8075 16.2675 6.05885e-08
1 1.8075 14.46 1.8075
1 6.05885e-08 16.2675 1.8075
1 3.615 14.46 6.05885e-08
1 5.4225 16.2675 6.05885e-08
1 5.4225 14.46 1.8075
1 3.615 16.2675 1.8075
1 7.23 14.46 6.05885e-08
1 7.23 16.2675 1.8075
1 1.8075 9.0375 3.615
1 6.05885e-08 9.0375 5.4225
1 5.4225 9.0375 3.615
1 3.615 9.0375 5.4225
1 7.23 9.0375 5.4225
1 6.05885e-08 10.845 3.615
1 1.8075 12.6525 3.615
1 1.8075 10.845 5.4225
1 6.05885e-08 12.6525 5.4225
1 3.615 10.845 3.615
1 5.4225 12.6525 3.615
1 5.4225 10.845 5.4225
1 3.615 12.6525 5.4225
1 7.23 10.845 3.615
1 7.23 12.6525 5.4225
1 6.05885e-08 14.46 3.615
1 1.8075 16.2675 3.615
1 1.8075 14.46 5.4225
1 6.05885e-08 16.2675 5.4225
1 3.615 14.46 3.615
1 5.4225 16.2675 3.615
1 5.4225 14.46 5.4225
1 3.615 16.2675 5.4225
1 7.23 14.46 3.615
1 7.23 16.2675 5.4225
1 1.8075 9.0375 7.23
1 5.4225 9.0375 7.23
1 6.05885e-08 10.845 7.23
1 1.8075 12.6525 7.23
1 3.615 10.845 7.23
1 5.4225 12.6525 7.23
1 7.23 10.845 7.23
1 9.0375 12.6525 7.23
1 9.0375 10.845 9.0375
1 7.23 12.6525 9.0375
1 6.05885e-08 14.46 7.23
1 1.8075 16.2675 7.23
1 3.615 14.46 7.23
1 5.4225 16.2675 7.23
1 7.23 14.46 7.23
1 9.0375 14.46 9.0375
1 3.615 9.0375 9.0375
1 1.8075 10.845 9.0375
1 6.05885e-08 12.6525 9.0375
1 5.4225 10.845 9.0375
1 3.615 12.6525 9.0375
1 1.8075 14.46 9.0375
1 6.05885e-08 16.2675 9.0375
1 5.4225 14.46 9.0375
1 3.615 16.2675 9.0375
1 7.23 16.2675 9.0375
1 1.8075 9.0375 10.845
1 6.05885e-08 9.0375 12.6525
1 5.4225 9.0375 10.845
1 3.615 9.0375 12.6525
1 6.05885e-08 10.845 10.845
1 1.8075 12.6525 10.845
1 1.8075 10.845 12.6525
1 6.05885e-08 12.6525 12.6525
1 3.615 10.845 10.845
1 5.4225 12.6525 10.845
1 5.4225 10.845 12.6525
1 3.615 12.6525 12.6525
1 7.23 10.845 10.845
1 9.0375 12.6525 10.845
1 9.0375 10.845 12.6525
1 7.23 12.6525 12.6525
1 6.05885e-08 14.46 10.845
1 1.8075 16.2675 10.845
1 1.8075 14.46 12.6525
1 6.05885e-08 16.2675 12.6525
1 3.615 14.46 10.845
1 5.4225 16.2675 10.845
1 5.4225 14.46 12.6525
1 3.615 16.2675 12.6525
1 7.23 14.46 10.845
1 9.0375 16.2675 10.845
1 9.0375 14.46 12.6525
1 7.23 16.2675 12.6525
1 1.8075 9.0375 14.46
1 6.05885e-08 9.0375 16.2675
1 5.4225 9.0375 14.46
1 3.615 9.0375 16.2675
1 7.23 9.0375 16.2675
1 6.05885e-08 10.845 14.46
1 1.8075 12.6525 14.46
1 1.8075 10.845 16.2675
1 6.05885e-08 12.6525 16.2675
1 3.615 10.845 14.46
1 5.4225 12.6525 14.46
1 5.4225 10.845 16.2675
1 3.615 12.6525 16.2675
1 7.23 10.845 14.46
1 9.0375 12.6525 14.46
1 9.0375 10.845 16.2675
1 7.23 12.6525 16.2675
1 6.05885e-08 14.46 14.46
1 1.8075 16.2675 14.46
1 1.8075 14.46 16.2675
1 6.05885e-08 16.2675 16.2675
1 3.615 14.46 14.46
1 5.4225 16.2675 14.46
1 5.4225 14.46 16.2675
1 3.615 16.2675 16.2675
1 7.23 14.46 14.46
1 7.23 16.2675 16.2675
1 9.0375 1.8075 6.05885e-08
1 9.0375 6.05885e-08 1.8075
1 10.845 6.05885e-08 6.05885e-08
1 12.6525 1.8075 6.05885e-08
1 12.6525 6.05885e-08 1.8075
1 10.845 1.8075 1.8075
1 14.46 6.05885e-08 6.05885e-08
1 16.2675 1.8075 6.05885e-08
1 16.2675 6.05885e-08 1.8075
1 14.46 1.8075 1.8075
1 9.0375 5.4225 6.05885e-08
1 9.0375 3.615 1.8075
1 10.845 3.615 6.05885e-08
1 12.6525 5.4225 6.05885e-08
1 12.6525 3.615 1.8075
1 10.845 5.4225 1.8075
1 14.46 3.615 6.05885e-08
1 16.2675 5.4225 6.05885e-08
1 16.2675 3.615 1.8075
1 14.46 5.4225 1.8075
1 9.0375 7.23 1.8075
1 10.845 7.23 6.05885e-08
1 12.6525 7.23 1.8075
1 14.46 7.23 6.05885e-08
1 16.2675 7.23 1.8075
1 9.0375 1.8075 3.615
1 9.0375 6.05885e-08 5.4225
1 10.845 6.05885e-08 3.615
1 12.6525 1.8075 3.615
1 12.6525 6.05885e-08 5.4225
1 10.845 1.8075 5.4225
1 14.46 6.05885e-08 3.615
1 16.2675 1.8075 3.615
1 16.2675 6.05885e-08 5.4225
1 14.46 1.8075 5.4225
1 9.0375 5.4225 3.615
1 9.0375 3.615 5.4225
1 10.845 3.615 3.615
1 12.6525 5.4225 3.615
1 12.6525 3.615 5.4225
1 10.845 5.4225 5.4225
1 14.46 3.615 3.615
1 16.2675 5.4225 3.615
1 16.2675 3.615 5.4225
1 14.46 5.4225 5.4225
1 9.0375 7.23 5.4225
1 10.845 7.23 3.615
1 12.6525 7.23 5.4225
1 14.46 7.23 3.615
1 16.2675 7.23 5.4225
1 9.0375 1.8075 7.23
1 10.845 6.05885e-08 7.23
1 12.6525 1.8075 7.23
1 14.46 6.05885e-08 7.23
1 16.2675 1.8075 7.23
1 9.0375 5.4225 7.23
1 10.845 3.615 7.23
1 12.6525 5.4225 7.23
1 14.46 3.615 7.23
1 16.2675 5.4225 7.23
1 10.845 7.23 7.23
1 12.6525 9.0375 7.23
1 12.6525 7.23 9.0375
1 10.845 9.0375 9.0375
1 14.46 7.23 7.23
1 14.46 9.0375 9.0375
1 12.6525 6.05885e-08 9.0375
1 10.845 1.8075 9.0375
1 16.2675 6.05885e-08 9.0375
1 14.46 1.8075 9.0375
1 9.0375 3.615 9.0375
1 12.6525 3.615 9.0375
1 10.845 5.4225 9.0375
1 16.2675 3.615 9.0375
1 14.46 5.4225 9.0375
1 16.2675 7.23 9.0375
1 9.0375 1.8075 10.845
1 9.0375 6.05885e-08 12.6525
1 10.845 6.05885e-08 10.845
1 12.6525 1.8075 10.845
1 12.6525 6.05885e-08 12.6525
1 10.845 1.8075 12.6525
1 14.46 6.05885e-08 10.845
1 16.2675 1.8075 10.845
1 16.2675 6.05885e-08 12.6525
1 14.46 1.8075 12.6525
1 9.0375 5.4225 10.845
1 9.0375 3.615 12.6525
1 10.845 3.615 10.845
1 12.6525 5.4225 10.845
1 12.6525 3.615 12.6525
1 10.845 5.4225 12.6525
1 14.46 3.615 10.845
1 16.2675 5.4225 10.845
1 16.2675 3.615 12.6525
1 14.46 5.4225 12.6525
1 10.845 7.23 10.845
1 12.6525 9.0375 10.845
1 12.6525 7.23 12.6525
1 10.845 9.0375 12.6525
1 14.46 7.23 10.845
1 16.2675 9.0375 10.845
1 16.2675 7.23 12.6525
1 14.46 9.0375 12.6525
1 9.0375 1.8075 14.46
1 9.0375 6.05885e-08 16.2675
1 10.845 6.05885e-08 14.46
1 12.6525 1.8075 14.46
1 12.6525 6.05885e-08 16.2675
1 10.845 1.8075 16.2675
1 14.46 6.05885e-08 14.46
1 16.2675 1.8075 14.46
1 16.2675 6.05885e-08 16.2675
1 14.46 1.8075 16.2675
1 9.0375 5.4225 14.46
1 9.0375 3.615 16.2675
1 10.845 3.615 14.46
1 12.6525 5.4225 14.46
1 12.6525 3.615 16.2675
1 10.845 5.4225 16.2675
1 14.46 3.615 14.46
1 16.2675 5.4225 14.46
1 16.2675 3.615 16.2675
1 14.46 5.4225 16.2675
1 9.0375 7.23 16.2675
1 10.845 7.23 14.46
1 12.6525 9.0375 14.46
1 12.6525 7.23 16.2675
1 10.845 9.0375 16.2675
1 14.46 7.23 14.46
1 16.2675 7.23 16.2675
1 12.6525 9.0375 6.05885e-08
1 10.845 9.0375 1.8075
1 16.2675 9.0375 6.05885e-08
1 14.46 9.0375 1.8075
1 9.0375 12.6525 6.05885e-08
1 9.0375 10.845 1.8075
1 10.845 10.845 6.05885e-08
1 12.6525 12.6525 6.05885e-08
1 12.6525 10.845 1.8075
1 10.845 12.6525 1.8075
1 14.46 10.845 6.05885e-08
1 16.2675 12.6525 6.05885e-08
1 16.2675 10.845 1.8075
1 14.46 12.6525 1.8075
1 9.0375 16.2675 6.05885e-08
1 9.0375 14.46 1.8075
1 10.845 14.46 6.05885e-08
1 12.6525 16.2675 6.05885e-08
1 12.6525 14.46 1.8075
1 10.845 16.2675 1.8075
1 14.46 14.46 6.05885e-08
1 16.2675 16.2675 6.05885e-08
1 16.2675 14.46 1.8075
1 14.46 16.2675 1.8075
1 9.0375 9.0375 3.615
1 12.6525 9.0375 3.615
1 10.845 9.0375 5.4225
1 16.2675 9.0375 3.615
1 14.46 9.0375 5.4225
1 9.0375 12.6525 3.615
1 9.0375 10.845 5.4225
1 10.845 10.845 3.615
1 12.6525 12.6525 3.615
1 12.6525 10.845 5.4225
1 10.845 12.6525 5.4225
1 14.46 10.845 3.615
1 16.2675 12.6525 3.615
1 16.2675 10.845 5.4225
1 14.46 12.6525 5.4225
1 9.0375 16.2675 3.615
1 9.0375 14.46 5.4225
1 10.845 14.46 3.615
1 12.6525 16.2675 3.615
1 12.6525 14.46 5.4225
1 10.845 16.2675 5.4225
1 14.46 14.46 3.615
1 16.2675 16.2675 3.615
1 16.2675 14.46 5.4225
1 14.46 16.2675 5.4225
1 16.2675 9.0375 7.23
1 10.845 10.845 7.23
1 12.6525 12.6525 7.23
1 12.6525 10.845 9.0375
1 10.845 12.6525 9.0375
1 14.46 10.845 7.23
1 16.2675 12.6525 7.23
1 16.2675 10.845 9.0375
1 14.46 12.6525 9.0375
1 9.0375 16.2675 7.23
1 10.845 14.46 7.23
1 12.6525 16.2675 7.23
1 12.6525 14.46 9.0375
1 10.845 16.2675 9.0375
1 14.46 14.46 7.23
1 16.2675 16.2675 7.23
1 16.2675 14.46 9.0375
1 14.46 16.2675 9.0375
1 10.845 10.845 10.845
1 12.6525 12.6525 10.845
1 12.6525 10.845 12.6525
1 10.845 12.6525 12.6525
1 14.46 10.845 10.845
1 16.2675 12.6525 10.845
1 16.2675 10.845 12.6525
1 14.46 12.6525 12.6525
1 10.845 14.46 10.845
1 12.6525 16.2675 10.845
1 12.6525 14.46 12.6525
1 10.845 16.2675 12.6525
1 14.46 14.46 10.845
1 16.2675 16.2675 10.845
1 16.2675 14.46 12.6525
1 14.46 16.2675 12.6525
1 16.2675 9.0375 14.46
1 14.46 9.0375 16.2675
1 10.845 10.845 14.46
1 12.6525 12.6525 14.46
1 12.6525 10.845 16.2675
1 10.845 12.6525 16.2675
1 14.46 10.845 14.46
1 16.2675 12.6525 14.46
1 16.2675 10.845 16.2675
1 14.46 12.6525 16.2675
1 9.0375 16.2675 14.46
1 9.0375 14.46 16.2675
1 10.845 14.46 14.46
1 12.6525 16.2675 14.46
1 12.6525 14.46 16.2675
1 10.845 16.2675 16.2675
1 14.46 14.46 14.46
1 16.2675 16.2675 14.46
1 16.2675 14.46 16.2675
1 14.46 16.2675 16.2675
500
Atoms. Timestep: 3
1 6.05885e-08 6.05885e-08 6.05885e-08
1 1.8075 1.8075 6.05885e-08
1 1.8075 6.05885e-08 1.8075
1 6.05885e-08 1.8075 1.8075
1 3.615 6.05885e-08 6.05885e-08
1 5.4225 1.8075 6.05885e-08
1 5.4225 6.05885e-08 1.8075
1 3.615 1.8075 1.8075
1 7.23 6.05885e-08 6.05885e-08
1 7.23 1.8075 1.8075
1 6.05885e-08 3.615 6.05885e-08
1 1.8075 5.4225 6.05885e-08
1 1.8075 3.615 1.8075
1 6.05885e-08 5.4225 1.8075
1 3.615 3.615 6.05885e-08
1 5.4225 5.4225 6.05885e-08
1 5.4225 3.615 1.8075
1 3.615 5.4225 1.8075
1 7.23 3.615 6.05885e-08
1 7.23 5.4225 1.8075
1 6.05885e-08 7.23 6.05885e-08
1 1.8075 7.23 1.8075
1 3.615 7.23 6.05885e-08
1 5.4225 7.23 1.8075
1 7.23 7.23 6.05885e-08
1 9.0375 9.0375 6.05885e-08
1 6.05885e-08 6.05885e-08 3.615
1 1.8075 1.8075 3.615
1 1.8075 6.05885e-08 5.4225
1 6.05885e-08 1.8075 5.4225
1 3.615 6.05885e-08 3.615
1 5.4225 1.8075 3.615
1 5.4225 6.05885e-08 5.4225
1 3.615 1.8075 5.4225
1 7.23 6.05885e-08 3.615
1 7.23 1.8075 5.4225
1 6.05885e-08 3.615 3.615
1 1.8075 5.4225 3.615
1 1.8075 3.615 5.4225
1 6.05885e-08 5.4225 5.4225
1 3.615 3.615 3.615
1 5.4225 5.4225 3.615
1 5.4225 3.615 5.4225
1 3.615 5.4225 5.4225
1 7.23 3.615 3.615
1 7.23 5.4225 5.4225
1 6.05885e-08 7.23 3.615
1 1.8075 7.23 5.4225
1 3.615 7.23 3.615
1 5.4225 7.23 5.4225
1 7.23 7.23 3.615
1 6.05885e-08 6.05885e-08 7.23
1 1.8075 1.8075 7.23
1 3.615 6.05885e-08 7.23
1 5.4225 1.8075 7.23
1 7.23 6.05885e-08 7.23
1 9.0375 6.05885e-08 9.0375
1 6.05885e-08 3.615 7.23
1 1.8075 5.4225 7.23
1 3.615 3.615 7.23
1 5.4225 5.4225 7.23
1 7.23 3.615 7.23
1 6.05885e-08 7.23 7.23
1 6.05885e-08 9.0375 9.0375
1 3.615 7.23 7.23
1 7.23 7.23 7.23
1 9.0375 9.0375 7.23
1 9.0375 7.23 9.0375
1 7.23 9.0375 9.0375
1 1.8075 6.05885e-08 9.0375
1 6.05885e-08 1.8075 9.0375
1 5.4225 6.05885e-08 9.0375
1 3.615 1.8075 9.0375
1 7.23 1.8075 9.0375
1 1.8075 3.615 9.0375
1 6.05885e-08 5.4225 9.0375
1 5.4225 3.615 9.0375
1 3.615 5.4225 9.0375
1 7.23 5.4225 9.0375
1 1.8075 7.23 9.0375
1 5.4225 7.23 9.0375
1 6.05885e-08 6.05885e-08 10.845
1 1.8075 1.8075 10.845
1 1.8075 6.05885e-08 12.6525
1 6.05885e-08 1.8075 12.6525
1 3.615 6.05885e-08 10.845
1 5.4225 1.8075 10.845
1 5.4225 6.05885e-08 12.6525
1 3.615 1.8075 12.6525
1 7.23 6.05885e-08 10.845
1 7.23 1.8075 12.6525
1 6.05885e-08 3.615 10.845
1 1.8075 5.4225 10.845
1 1.8075 3.615 12.6525
1 6.05885e-08 5.4225 12.6525
1 3.615 3.615 10.845
1 5.4225 5.4225 10.845
1 5.4225 3.615 12.6525
1 3.615 5.4225 12.6525
1 7.23 3.615 10.845
1 7.23 5.4225 12.6525
1 6.05885e-08 7.23 10.845
1 1.8075 7.23 12.6525
1 3.615 7.23 10.845
1 5.4225 7.23 12.6525
1 7.23 7.23 10.845
1 9.0375 9.0375 10.845
1 9.0375 7.23 12.6525
1 7.23 9.0375 12.6525
1 6.05885e-08 6.05885e-08 14.46
1 1.8075 1.8075 14.46
1 1.8075 6.05885e-08 16.2675
1 6.05885e-08 1.8075 16.2675
1 3.615 6.05885e-08 14.46
1 5.4225 1.8075 14.46
1 5.4225 6.05885e-08 16.2675
1 3.615 1.8075 16.2675
1 7.23 6.05885e-08 14.46
1 7.23 1.8075 16.2675
1 6.05885e-08 3.615 14.46
1 1.8075 5.4225 14.46
1 1.8075 3.615 16.2675
1 6.05885e-08 5.4225 16.2675
1 3.615 3.615 14.46
1 5.4225 5.4225 14.46
1 5.4225 3.615 16.2675
1 3.615 5.4225 16.2675
1 7.23 3.615 14.46
1 7.23 5.4225 16.2675
1 6.05885e-08 7.23 14.46
1 1.8075 7.23 16.2675
1 3.615 7.23 14.46
1 5.4225 7.23 16.2675
1 7.23 7.23 14.46
1 9.0375 9.0375 14.46
1 1.8075 9.0375 6.05885e-08
1 6.05885e-08 9.0375 1.8075
1 5.4225 9.0375 6.05885e-08
1 3.615 9.0375 1.8075
1 7.23 9.0375 1.8075
1 6.05885e-08 10.845 6.05885e-08
1 1.8075 12.6525 6.05885e-08
1 1.8075 10.845 1.8075
1 6.05885e-08 12.6525 1.8075
1 3.615 10.845 6.05885e-08
1 5.4225 12.6525 6.05885e-08
1 5.4225 10.845 1.8075
1 3.615 12.6525 1.8075
1 7.23 10.845 6.05885e-08
1 7.23 12.6525 1.8075
1 6.05885e-08 14.46 6.05885e-08
1 1.8075 16.2675 6.05885e-08
1 1.8075 14.46 1.8075
1 6.05885e-08 16.2675 1.8075
1 3.615 14.46 6.05885e-08
1 5.4225 16.2675 6.05885e-08
1 5.4225 14.46 1.8075
1 3.615 16.2675 1.8075
1 7.23 14.46 6.05885e-08
1 7.23 16.2675 1.8075
1 1.8075 9.0375 3.615
1 6.05885e-08 9.0375 5.4225
1 5.4225 9.0375 3.615
1 3.615 9.0375 5.4225
1 7.23 9.0375 5.4225
1 6.05885e-08 10.845 3.615
1 1.8075 12.6525 3.615
1 1.8075 10.845 5.4225
1 6.05885e-08 12.6525 5.4225
1 3.615 10.845 3.615
1 5.4225 12.6525 3.615
1 5.4225 10.845 5.4225
1 3.615 12.6525 5.4225
1 7.23 10.845 3.615
1 7.23 12.6525 5.4225
1 6.05885e-08 14.46 3.615
1 1.8075 16.2675 3.615
1 1.8075 14.46 5.4225
1 6.05885e-08 16.2675 5.4225
1 3.615 14.46 3.615
1 5.4225 16.2675 3.615
1 5.4225 14.46 5.4225
1 3.615 16.2675 5.4225
1 7.23 14.46 3.615
1 7.23 16.2675 5.4225
1 1.8075 9.0375 7.23
1 5.4225 9.0375 7.23
1 6.05885e-08 10.845 7.23
1 1.8075 12.6525 7.23
1 3.615 10.845 7.23
1 5.4225 12.6525 7.23
1 7.23 10.845 7.23
1 9.0375 12.6525 7.23
1 9.0375 10.845 9.0375
1 7.23 12.6525 9.0375
1 6.05885e-08 14.46 7.23
1 1.8075 16.2675 7.23
1 3.615 14.46 7.23
1 5.4225 16.2675 7.23
1 7.23 14.46 7.23
1 9.0375 14.46 9.0375
1 3.615 9.0375 9.0375
1 1.8075 10.845 9.0375
1 6.05885e-08 12.6525 9.0375
1 5.4225 10.845 9.0375
1 3.615 12.6525 9.0375
1 1.8075 14.46 9.0375
1 6.05885e-08 16.2675 9.0375
1 5.4225 14.46 9.0375
1 3.615 16.2675 9.0375
1 7.23 16.2675 9.0375
1 1.8075 9.0375 10.845
1 6.05885e-08 9.0375 12.6525
1 5.4225 9.0375 10.845
1 3.615 9.0375 12.6525
1 6.05885e-08 10.845 10.845
1 1.8075 12.6525 10.845
1 1.8075 10.845 12.6525
1 6.05885e-08 12.6525 12.6525
1 3.615 10.845 10.845
1 5.4225 12.6525 10.845
1 5.4225 10.845 12.6525
1 3.615 12.6525 12.6525
1 7.23 10.845 10.845
1 9.0375 12.6525 10.845
1 9.0375 10.845 12.6525
1 7.23 12.6525 12.6525
1 6.05885e-08 14.46 10.845
1 1.8075 16.2675 10.845
1 1.8075 14.46 12.6525
1 6.05885e-08 16.2675 12.6525
1 3.615 14.46 10.845
1 5.4225 16.2675 10.845
1 5.4225 14.46 12.6525
1 3.615 16.2675 12.6525
1 7.23 14.46 10.845
1 9.0375 16.2675 10.845
1 9.0375 14.46 12.6525
1 7.23 16.2675 12.6525
1 1.8075 9.0375 14.46
1 6.05885e-08 9.0375 16.2675
1 5.4225 9.0375 14.46
1 3.615 9.0375 16.2675
1 7.23 9.0375 16.2675
1 6.05885e-08 10.845 14.46
1 1.8075 12.6525 14.46
1 1.8075 10.845 16.2675
1 6.05885e-08 12.6525 16.2675
1 3.615 10.845 14.46
1 5.4225 12.6525 14.46
1 5.4225 10.845 16.2675
1 3.615 12.6525 16.2675
1 7.23 10.845 14.46
1 9.0375 12.6525 14.46
1 9.0375 10.845 16.2675
1 7.23 12.6525 16.2675
1 6.05885e-08 14.46 14.46
1 1.8075 16.2675 14.46
1 1.8075 14.46 16.2675
1 6.05885e-08 16.2675 16.2675
1 3.615 14.46 14.46
1 5.4225 16.2675 14.46
1 5.4225 14.46 16.2675
1 3.615 16.2675 16.2675
1 7.23 14.46 14.46
1 7.23 16.2675 16.2675
1 9.0375 1.8075 6.05885e-08
1 9.0375 6.05885e-08 1.8075
1 10.845 6.05885e-08 6.05885e-08
1 12.6525 1.8075 6.05885e-08
1 12.6525 6.05885e-08 1.8075
1 10.845 1.8075 1.8075
1 14.46 6.05885e-08 6.05885e-08
1 16.2675 1.8075 6.05885e-08
1 16.2675 6.05885e-08 1.8075
1 14.46 1.8075 1.8075
1 9.0375 5.4225 6.05885e-08
1 9.0375 3.615 1.8075
1 10.845 3.615 6.05885e-08
1 12.6525 5.4225 6.05885e-08
1 12.6525 3.615 1.8075
1 10.845 5.4225 1.8075
1 14.46 3.615 6.05885e-08
1 16.2675 5.4225 6.05885e-08
1 16.2675 3.615 1.8075
1 14.46 5.4225 1.8075
1 9.0375 7.23 1.8075
1 10.845 7.23 6.05885e-08
1 12.6525 7.23 1.8075
1 14.46 7.23 6.05885e-08
1 16.2675 7.23 1.8075
1 9.0375 1.8075 3.615
1 9.0375 6.05885e-08 5.4225
1 10.845 6.05885e-08 3.615
1 12.6525 1.8075 3.615
1 12.6525 6.05885e-08 5.4225
1 10.845 1.8075 5.4225
1 14.46 6.05885e-08 3.615
1 16.2675 1.8075 3.615
1 16.2675 6.05885e-08 5.4225
1 14.46 1.8075 5.4225
1 9.0375 5.4225 3.615
1 9.0375 3.615 5.4225
1 10.845 3.615 3.615
1 12.6525 5.4225 3.615
1 12.6525 3.615 5.4225
1 10.845 5.4225 5.4225
1 14.46 3.615 3.615
1 16.2675 5.4225 3.615
1 16.2675 3.615 5.4225
1 14.46 5.4225 5.4225
1 9.0375 7.23 5.4225
1 10.845 7.23 3.615
1 12.6525 7.23 5.4225
1 14.46 7.23 3.615
1 16.2675 7.23 5.4225
1 9.0375 1.8075 7.23
1 10.845 6.05885e-08 7.23
1 12.6525 1.8075 7.23
1 14.46 6.05885e-08 7.23
1 16.2675 1.8075 7.23
1 9.0375 5.4225 7.23
1 10.845 3.615 7.23
1 12.6525 5.4225 7.23
1 14.46 3.615 7.23
1 16.2675 5.4225 7.23
1 10.845 7.23 7.23
1 12.6525 9.0375 7.23
1 12.6525 7.23 9.0375
1 10.845 9.0375 9.0375
1 14.46 7.23 7.23
1 14.46 9.0375 9.0375
1 12.6525 6.05885e-08 9.0375
1 10.845 1.8075 9.0375
1 16.2675 6.05885e-08 9.0375
1 14.46 1.8075 9.0375
1 9.0375 3.615 9.0375
1 12.6525 3.615 9.0375
1 10.845 5.4225 9.0375
1 16.2675 3.615 9.0375
1 14.46 5.4225 9.0375
1 16.2675 7.23 9.0375
1 9.0375 1.8075 10.845
1 9.0375 6.05885e-08 12.6525
1 10.845 6.05885e-08 10.845
1 12.6525 1.8075 10.845
1 12.6525 6.05885e-08 12.6525
1 10.845 1.8075 12.6525
1 14.46 6.05885e-08 10.845
1 16.2675 1.8075 10.845
1 16.2675 6.05885e-08 12.6525
1 14.46 1.8075 12.6525
1 9.0375 5.4225 10.845
1 9.0375 3.615 12.6525
1 10.845 3.615 10.845
1 12.6525 5.4225 10.845
1 12.6525 3.615 12.6525
1 10.845 5.4225 12.6525
1 14.46 3.615 10.845
1 16.2675 5.4225 10.845
1 16.2675 3.615 12.6525
1 14.46 5.4225 12.6525
1 10.845 7.23 10.845
1 12.6525 9.0375 10.845
1 12.6525 7.23 12.6525
1 10.845 9.0375 12.6525
1 14.46 7.23 10.845
1 16.2675 9.0375 10.845
1 16.2675 7.23 12.6525
1 14.46 9.0375 12.6525
1 9.0375 1.8075 14.46
1 9.0375 6.05885e-08 16.2675
1 10.845 6.05885e-08 14.46
1 12.6525 1.8075 14.46
1 12.6525 6.05885e-08 16.2675
1 10.845 1.8075 16.2675
1 14.46 6.05885e-08 14.46
1 16.2675 1.8075 14.46
1 16.2675 6.05885e-08 16.2675
1 14.46 1.8075 16.2675
1 9.0375 5.4225 14.46
1 9.0375 3.615 16.2675
1 10.845 3.615 14.46
1 12.6525 5.4225 14.46
1 12.6525 3.615 16.2675
1 10.845 5.4225 16.2675
1 14.46 3.615 14.46
1 16.2675 5.4225 14.46
1 16.2675 3.615 16.2675
1 14.46 5.4225 16.2675
1 9.0375 7.23 16.2675
1 10.845 7.23 14.46
1 12.6525 9.0375 14.46
1 12.6525 7.23 16.2675
1 10.845 9.0375 16.2675
1 14.46 7.23 14.46
1 16.2675 7.23 16.2675
1 12.6525 9.0375 6.05885e-08
1 10.845 9.0375 1.8075
1 16.2675 9.0375 6.05885e-08
1 14.46 9.0375 1.8075
1 9.0375 12.6525 6.05885e-08
1 9.0375 10.845 1.8075
1 10.845 10.845 6.05885e-08
1 12.6525 12.6525 6.05885e-08
1 12.6525 10.845 1.8075
1 10.845 12.6525 1.8075
1 14.46 10.845 6.05885e-08
1 16.2675 12.6525 6.05885e-08
1 16.2675 10.845 1.8075
1 14.46 12.6525 1.8075
1 9.0375 16.2675 6.05885e-08
1 9.0375 14.46 1.8075
1 10.845 14.46 6.05885e-08
1 12.6525 16.2675 6.05885e-08
1 12.6525 14.46 1.8075
1 10.845 16.2675 1.8075
1 14.46 14.46 6.05885e-08
1 16.2675 16.2675 6.05885e-08
1 16.2675 14.46 1.8075
1 14.46 16.2675 1.8075
1 9.0375 9.0375 3.615
1 12.6525 9.0375 3.615
1 10.845 9.0375 5.4225
1 16.2675 9.0375 3.615
1 14.46 9.0375 5.4225
1 9.0375 12.6525 3.615
1 9.0375 10.845 5.4225
1 10.845 10.845 3.615
1 12.6525 12.6525 3.615
1 12.6525 10.845 5.4225
1 10.845 12.6525 5.4225
1 14.46 10.845 3.615
1 16.2675 12.6525 3.615
1 16.2675 10.845 5.4225
1 14.46 12.6525 5.4225
1 9.0375 16.2675 3.615
1 9.0375 14.46 5.4225
1 10.845 14.46 3.615
1 12.6525 16.2675 3.615
1 12.6525 14.46 5.4225
1 10.845 16.2675 5.4225
1 14.46 14.46 3.615
1 16.2675 16.2675 3.615
1 16.2675 14.46 5.4225
1 14.46 16.2675 5.4225
1 16.2675 9.0375 7.23
1 10.845 10.845 7.23
1 12.6525 12.6525 7.23
1 12.6525 10.845 9.0375
1 10.845 12.6525 9.0375
1 14.46 10.845 7.23
1 16.2675 12.6525 7.23
1 16.2675 10.845 9.0375
1 14.46 12.6525 9.0375
1 9.0375 16.2675 7.23
1 10.845 14.46 7.23
1 12.6525 16.2675 7.23
1 12.6525 14.46 9.0375
1 10.845 16.2675 9.0375
1 14.46 14.46 7.23
1 16.2675 16.2675 7.23
1 16.2675 14.46 9.0375
1 14.46 16.2675 9.0375
1 10.845 10.845 10.845
1 12.6525 12.6525 10.845
1 12.6525 10.845 12.6525
1 10.845 12.6525 12.6525
1 14.46 10.845 10.845
1 16.2675 12.6525 10.845
1 16.2675 10.845 12.6525
1 14.46 12.6525 12.6525
1 10.845 14.46 10.845
1 12.6525 16.2675 10.845
1 12.6525 14.46 12.6525
1 10.845 16.2675 12.6525
1 14.46 14.46 10.845
1 16.2675 16.2675 10.845
1 16.2675 14.46 12.6525
1 14.46 16.2675 12.6525
1 16.2675 9.0375 14.46
1 14.46 9.0375 16.2675
1 10.845 10.845 14.46
1 12.6525 12.6525 14.46
1 12.6525 10.845 16.2675
1 10.845 12.6525 16.2675
1 14.46 10.845 14.46
1 16.2675 12.6525 14.46
1 16.2675 10.845 16.2675
1 14.46 12.6525 16.2675
1 9.0375 16.2675 14.46
1 9.0375 14.46 16.2675
1 10.845 14.46 14.46
1 12.6525 16.2675 14.46
1 12.6525 14.46 16.2675
1 10.845 16.2675 16.2675
1 14.46 14.46 14.46
1 16.2675 16.2675 14.46
1 16.2675 14.46 16.2675
1 14.46 16.2675 16.2675
499
Atoms. Timestep: 32
1 0.000391761 -8.41494e-06 5.83083e-08
1 1.80817 1.80801 5.98844e-08
1 1.80817 -8.41733e-06 1.80802
1 0.000479488 1.80798 1.80799
1 3.61563 -8.41102e-06 6.68404e-08
1 5.42291 1.80818 6.36424e-08
1 5.42291 -8.39769e-06 1.80819
1 3.61573 1.80831 1.80831
1 7.22999 -8.39427e-06 7.0247e-08
1 7.22999 1.80884 1.80885
1 0.000506958 3.61567 5.28101e-08
1 1.80826 5.42313 5.72095e-08
1 1.80845 3.61595 1.80841
1 0.000805961 5.42323 1.80831
1 3.61563 3.61576 6.00234e-08
1 5.42242 5.4224 5.8622e-08
1 5.42301 3.61629 1.80906
1 3.61593 5.42343 1.80904
1 7.22999 3.61521 5.77283e-08
1 7.22999 5.42261 1.80754
1 0.000679518 7.23041 5.09402e-08
1 1.80879 7.23051 1.80906
1 3.6149 7.22992 5.97765e-08
1 5.42239 7.22989 1.8071
1 7.22999 7.22986 6.56299e-08
1 7.22999 7.25153 7.25154
1 0.000506958 -8.41187e-06 3.61568
1 1.80845 1.8084 3.61596
1 1.80826 -8.41756e-06 5.42314
1 0.000805967 1.80831 5.42323
1 3.61563 -8.40705e-06 3.61577
1 5.42301 1.80905 3.6163
1 5.42242 -8.40098e-06 5.42241
1 3.61593 1.80903 5.42344
1 7.22999 -8.39281e-06 3.61522
1 7.22999 1.80753 5.42262
1 0.000904606 3.61595 3.61596
1 1.80961 5.424 3.61712
1 1.80961 3.61711 5.42401
1 0.00153049 5.42343 5.42344
1 3.6165 3.61711 3.61712
1 5.42413 5.42537 3.61845
1 5.42413 3.61844 5.42538
1 3.619 5.4265 5.42651
1 7.22999 3.61878 3.61879
1 7.22999 5.43193 5.43194
1 0.00154791 7.23051 3.6163
1 1.81094 7.23163 5.42538
1 3.61787 7.23163 3.61845
1 5.42798 7.23548 5.42974
1 7.22999 7.22975 3.61375
1 0.000679525 -8.42249e-06 7.23041
1 1.80879 1.80905 7.23052
1 3.6149 -8.41596e-06 7.22993
1 5.42239 1.8071 7.2299
1 7.22999 -8.39578e-06 7.22987
1 3.62223 7.23548 7.23549
1 0.00154792 3.61629 7.23052
1 1.81094 5.42537 7.23164
1 3.61787 3.61844 7.23164
1 5.42798 5.42973 7.23549
1 7.22999 3.61374 7.22976
1 -0.000404675 7.22989 7.2299
1 1.80771 -8.42807e-06 9.0375
1 0.00134288 1.80884 9.0375
1 5.42236 -8.41243e-06 9.0375
1 3.61511 1.80753 9.0375
1 7.22999 1.80708 9.0375
1 1.81128 3.61878 9.0375
1 3.18224e-05 5.42261 9.0375
1 5.42225 3.61374 9.0375
1 3.62443 5.43193 9.0375
1 7.22999 5.41284 9.0375
1 1.80624 7.22975 9.0375
1 5.44403 7.25153 9.0375
1 0.000679525 -8.43402e-06 10.8446
1 1.80879 1.80905 10.8445
1 1.80826 -8.43013e-06 12.6519
1 0.000805965 1.80831 12.6518
1 3.6149 -8.42371e-06 10.8451
1 5.42239 1.8071 10.8451
1 5.42242 -8.41633e-06 12.6526
1 3.61593 1.80903 12.6516
1 7.22999 -8.41366e-06 10.8451
1 7.22999 1.80753 12.6524
1 0.00154792 3.61629 10.8445
1 1.81094 5.42537 10.8434
1 1.80961 3.61711 12.651
1 0.0015305 5.42343 12.6516
1 3.61787 3.61844 10.8434
1 5.42798 5.42973 10.8395
1 5.42413 3.61844 12.6496
1 3.619 5.4265 12.6485
1 7.22999 3.61374 10.8452
1 7.22999 5.43193 12.6431
1 -0.000404671 7.22989 10.8451
1 1.81094 7.23163 12.6496
1 3.62223 7.23548 10.8395
1 5.42798 7.23548 12.6453
1 7.22999 7.25153 10.8235
1 7.22999 7.22975 14.4613
1 5.42239 7.22989 16.2679
1 3.61787 7.23163 14.4565
1 0.000506962 -8.42829e-06 14.4593
1 1.80845 1.8084 14.459
1 1.80817 -8.42383e-06 16.267
1 0.000479487 1.80798 16.267
1 3.61563 -8.42096e-06 14.4592
1 5.42301 1.80905 14.4587
1 5.42291 -8.40602e-06 16.2668
1 3.61573 1.80831 16.2667
1 7.22999 -8.40166e-06 14.4598
1 7.22999 1.80884 16.2661
1 0.000904613 3.61595 14.459
1 1.80961 5.424 14.4579
1 1.80845 3.61595 16.2666
1 0.000805969 5.42323 16.2667
1 3.6165 3.61711 14.4579
1 5.42413 5.42537 14.4565
1 5.42301 3.61629 16.2659
1 3.61593 5.42343 16.266
1 7.22999 3.61878 14.4562
1 7.22999 5.42261 16.2675
1 0.00154793 7.23051 14.4587
1 1.80879 7.23051 16.2659
1 7.22999 9.03749 16.2679
1 9.03759 7.22989 16.2679
1 9.03585 5.42537 14.4565
1 1.80771 9.03749 5.70765e-08
1 0.00134287 9.03749 1.80885
1 5.42236 9.03749 6.65689e-08
1 3.61511 9.03749 1.80754
1 7.22999 9.03749 1.80708
1 0.000679513 10.8446 5.74281e-08
1 1.80826 12.6518 6.92019e-08
1 1.80879 10.8445 1.80906
1 0.000805953 12.6518 1.80831
1 3.6149 10.8451 6.89244e-08
1 5.42242 12.6526 7.48147e-08
1 5.42239 10.8451 1.8071
1 3.61593 12.6516 1.80904
1 7.22999 10.8451 6.83979e-08
1 7.22999 12.6524 1.80754
1 0.000506954 14.4593 6.47007e-08
1 1.80817 16.267 6.40033e-08
1 1.80845 14.459 1.80841
1 0.00047948 16.267 1.80799
1 3.61563 14.4592 7.41051e-08
1 5.42291 16.2668 7.75548e-08
1 5.42301 14.4587 1.80906
1 3.61573 16.2667 1.80831
1 7.22999 14.4598 7.7135e-08
1 7.22999 16.2661 1.80885
1 1.81128 9.03749 3.61879
1 3.1813e-05 9.03749 5.42262
1 5.42225 9.03749 3.61375
1 3.62443 9.03749 5.43194
1 7.22999 9.03749 5.41285
1 0.0015479 10.8445 3.6163
1 1.80961 12.651 3.61712
1 1.81094 10.8434 5.42538
1 0.00153049 12.6516 5.42344
1 3.61787 10.8434 3.61845
1 5.42413 12.6496 3.61845
1 5.42798 10.8395 5.42974
1 3.619 12.6485 5.42651
1 7.22999 10.8452 3.61375
1 7.22999 12.643 5.43194
1 0.000904601 14.459 3.61596
1 1.80845 16.2666 3.61596
1 1.80961 14.4579 5.42401
1 0.000805966 16.2667 5.42323
1 3.6165 14.4579 3.61712
1 5.42301 16.2659 3.6163
1 5.42413 14.4565 5.42538
1 3.61593 16.266 5.42344
1 7.22999 14.4562 3.61879
1 7.22999 16.2675 5.42262
1 1.80624 9.03749 7.22976
1 5.44403 9.03749 7.25154
1 -0.000404677 10.8451 7.2299
1 1.81094 12.6496 7.23164
1 3.62223 10.8395 7.23549
1 5.42798 12.6453 7.23549
1 7.22999 10.8235 7.25154
1 7.22999 14.4612 7.22976
1 5.42239 16.2679 7.2299
1 3.61787 14.4565 7.23164
1 0.00154791 14.4587 7.23052
1 1.80879 16.2659 7.23052
1 5.42225 14.4612 9.0375
1 7.22999 16.2679 9.0375
1 9.03759 16.2679 7.2299
1 3.60534 9.03749 9.0375
1 1.80624 10.8452 9.0375
1 3.18166e-05 12.6524 9.0375
1 5.44403 10.8235 9.0375
1 3.62443 12.643 9.0375
1 1.81128 14.4562 9.0375
1 0.00134289 16.2661 9.0375
1 7.22999 16.2661 16.2661
1 3.61511 16.2675 9.0375
1 7.22999 14.4562 14.4562
1 1.80624 9.03749 10.8452
1 3.18211e-05 9.03749 12.6524
1 5.44403 9.03749 10.8235
1 3.62443 9.03749 12.6431
1 -0.000404682 10.8451 10.8451
1 1.81094 12.6496 10.8434
1 1.81094 10.8434 12.6496
1 0.0015305 12.6516 12.6516
1 3.62223 10.8395 10.8395
1 5.42798 12.6453 10.8395
1 5.42798 10.8395 12.6453
1 3.619 12.6485 12.6485
1 7.22999 10.8235 10.8235
1 3.61573 16.2667 16.2667
1 5.42301 14.4587 16.2659
1 7.22999 12.643 12.6431
1 0.00154793 14.4587 10.8445