ITEM: TIMESTEP
25
ITEM: NUMBER OF ATOMS
499
ITEM: BOX BOUNDS pp pp pp
6.0588458308550604e-08 1.8074999939411544e+01
6.0588458308550604e-08 1.8074999939411544e+01
6.0588458308550604e-08 1.8074999939411544e+01
ITEM: ATOMS x y z 
0.000391761 -8.42268e-06 6.05883e-08 
1.80817 1.80801 6.05883e-08 
1.80817 -8.47161e-06 1.80802 
0.000479451 1.80798 1.80799 
3.61563 -8.47658e-06 6.05883e-08 
5.42291 1.80818 6.05883e-08 
5.42291 -8.4438e-06 1.80819 
3.61573 1.80831 1.80831 
7.22999 -8.38223e-06 6.05883e-08 
9.03708 1.80818 6.05883e-08 
9.03708 -8.29596e-06 1.80819 
7.22999 1.80884 1.80885 
10.8444 -8.20622e-06 6.05884e-08 
12.6518 1.80801 6.05883e-08 
12.6518 -8.21296e-06 1.80802 
10.8443 1.80831 1.80831 
14.4596 -8.22508e-06 6.05883e-08 
16.2675 1.80789 6.05883e-08 
16.2675 -8.33206e-06 1.8079 
14.4595 1.80798 1.80799 
0.000507013 3.61567 6.05883e-08 
1.80826 5.42313 6.05883e-08 
1.80845 3.61595 1.80841 
0.000806124 5.42323 1.80831 
3.61563 3.61576 6.05883e-08 
5.42242 5.4224 6.05883e-08 
5.42301 3.61629 1.80906 
3.61593 5.42343 1.80904 
7.22999 3.61521 6.05883e-08 
9.03756 5.4224 6.05883e-08 
9.03697 3.61629 1.80906 
7.22999 5.42261 1.80754 
10.8443 3.61576 6.05883e-08 
12.6517 5.42313 6.05883e-08 
12.6515 3.61595 1.80841 
10.8441 5.42343 1.80904 
14.4595 3.61567 6.05883e-08 
16.2675 5.42313 6.05883e-08 
16.2675 3.61567 1.80802 
14.4592 5.42323 1.80831 
0.000679703 7.23041 6.05883e-08 
1.80879 7.23051 1.80906 
3.6149 7.22992 6.05884e-08 
5.42239 7.22989 1.8071 
7.22999 7.22986 6.05884e-08 
14.4604 7.22989 7.2299 
9.03759 7.22989 1.8071 
10.8451 7.22992 6.05883e-08 
12.6512 7.23051 1.80906 
14.4593 7.23041 6.05883e-08 
16.2675 7.23041 1.80819 
0.000506877 -8.43883e-06 3.61568 
1.80845 1.8084 3.61596 
1.80826 -8.49417e-06 5.42314 
0.0008059 1.80831 5.42323 
3.61563 -8.51558e-06 3.61577 
5.42301 1.80905 3.6163 
5.42242 -8.46609e-06 5.42241 
3.61593 1.80903 5.42344 
7.22999 -8.39976e-06 3.61522 
9.03697 1.80905 3.6163 
9.03756 -8.3993e-06 5.42241 
7.22999 1.80753 5.42262 
10.8443 -8.30058e-06 3.61577 
12.6515 1.8084 3.61596 
12.6517 -8.40062e-06 5.42314 
10.8441 1.80903 5.42344 
14.4595 -8.32401e-06 3.61568 
16.2675 1.80801 3.61568 
16.2675 -8.43269e-06 5.42314 
14.4592 1.80831 5.42323 
0.000904618 3.61595 3.61596 
1.80961 5.424 3.61712 
1.80961 3.61711 5.42401 
0.00153046 5.42343 5.42344 
3.6165 3.61711 3.61712 
5.42413 5.42537 3.61845 
5.42413 3.61844 5.42538 
3.619 5.4265 5.42651 
7.22999 3.61878 3.61879 
9.03585 5.42537 3.61845 
9.03585 3.61844 5.42538 
7.22999 5.43193 5.43194 
10.8435 3.61711 3.61712 
12.6504 5.424 3.61712 
12.6504 3.61711 5.42401 
10.841 5.4265 5.42651 
14.4591 3.61595 3.61596 
16.2675 5.42313 3.61577 
16.2675 3.61576 5.42314 
14.4585 5.42343 5.42344 
0.00154801 7.23051 3.6163 
1.81094 7.23163 5.42538 
3.61787 7.23163 3.61845 
5.42798 7.23548 5.42974 
7.22999 7.22975 3.61375 
9.03201 7.23548 5.42974 
10.8421 7.23163 3.61845 
12.649 7.23163 5.42538 
14.4584 7.23051 3.6163 
16.2675 7.22992 5.42241 
0.000679366 -8.49614e-06 7.23041 
1.80879 1.80905 7.23052 
3.6149 -8.44398e-06 7.22993 
5.42239 1.8071 7.2299 
7.22999 -8.45966e-06 7.22987 
9.03759 1.8071 7.2299 
10.8378 7.23548 7.23549 
10.8451 -8.44559e-06 7.22993 
12.6512 1.80905 7.23052 
14.4593 -8.463e-06 7.23041 
16.2675 1.80818 7.23041 
0.00154776 3.61629 7.23052 
1.81094 5.42537 7.23164 
3.61787 3.61844 7.23164 
5.42798 5.42973 7.23549 
7.22999 3.61374 7.22976 
9.03201 5.42973 7.23549 
10.8421 3.61844 7.23164 
12.649 5.42537 7.23164 
14.4584 3.61629 7.23052 
16.2675 5.4224 7.22993 
-0.000404697 7.22989 7.2299 
7.22999 7.25153 7.25154 
3.62223 7.23548 7.23549 
1.80771 -8.45469e-06 9.0375 
0.00134267 1.80884 9.0375 
5.42236 -8.43502e-06 9.0375 
3.61511 1.80753 9.0375 
7.22999 1.80708 9.0375 
12.6523 -8.47512e-06 9.0375 
10.8449 1.80753 9.0375 
16.2675 -8.52759e-06 9.0375 
14.4586 1.80884 9.0375 
1.81128 3.61878 9.0375 
3.16647e-05 5.42261 9.0375 
5.42225 3.61374 9.0375 
3.62443 5.43193 9.0375 
9.03773 3.61374 9.0375 
7.22999 5.41284 9.0375 
12.6487 3.61878 9.0375 
10.8355 5.43193 9.0375 
16.2675 3.61521 9.0375 
14.46 5.42261 9.0375 
1.80624 7.22975 9.0375 
5.44403 7.25153 9.0375 
16.2675 7.22986 9.0375 
0.000679366 -8.49614e-06 10.8446 
1.80879 1.80905 10.8445 
1.80826 -8.49417e-06 12.6519 
0.0008059 1.80831 12.6518 
3.6149 -8.44398e-06 10.8451 
5.42239 1.8071 10.8451 
5.42242 -8.46609e-06 12.6526 
3.61593 1.80903 12.6516 
7.22999 -8.45966e-06 10.8451 
9.03759 1.8071 10.8451 
9.03756 -8.3993e-06 12.6526 
7.22999 1.80753 12.6524 
10.8451 -8.44559e-06 10.8451 
12.6512 1.80905 10.8445 
12.6517 -8.40062e-06 12.6519 
10.8441 1.80903 12.6516 
14.4593 -8.463e-06 10.8446 
16.2675 1.80818 10.8446 
16.2675 -8.43269e-06 12.6519 
14.4592 1.80831 12.6518 
0.00154776 3.61629 10.8445 
1.81094 5.42537 10.8434 
1.80961 3.61711 12.651 
0.00153046 5.42343 12.6516 
3.61787 3.61844 10.8434 
5.42798 5.42973 10.8395 
5.42413 3.61844 12.6496 
3.619 5.4265 12.6485 
7.22999 3.61374 10.8452 
9.03201 5.42973 10.8395 
9.03585 3.61844 12.6496 
7.22999 5.43193 12.6431 
10.8421 3.61844 10.8434 
12.649 5.42537 10.8434 
12.6504 3.61711 12.651 
10.841 5.4265 12.6485 
14.4584 3.61629 10.8445 
16.2675 5.4224 10.8451 
16.2675 3.61576 12.6519 
14.4585 5.42343 12.6516 
-0.000404697 7.22989 10.8451 
1.81094 7.23163 12.6496 
3.62223 7.23548 10.8395 
5.42798 7.23548 12.6453 
7.22999 7.25153 10.8235 
16.2675 7.23041 16.2668 
9.03201 7.23548 12.6453 
14.4584 7.23051 14.4587 
10.8378 7.23548 10.8395 
12.6512 7.23051 16.2659 
12.649 7.23163 12.6496 
10.8421 7.23163 14.4565 
14.4604 7.22989 10.8451 
9.03759 7.22989 16.2679 
16.2675 7.22992 12.6526 
7.22999 7.22975 14.4613 
0.000506877 -8.43883e-06 14.4593 
1.80845 1.8084 14.459 
1.80817 -8.47161e-06 16.267 
0.000479451 1.80798 16.267 
3.61563 -8.51558e-06 14.4592 
5.42301 1.80905 14.4587 
5.42291 -8.4438e-06 16.2668 
3.61573 1.80831 16.2667 
7.22999 -8.39976e-06 14.4598 
9.03697 1.80905 14.4587 
9.03708 -8.29596e-06 16.2668 
7.22999 1.80884 16.2661 
10.8443 -8.30058e-06 14.4592 
12.6515 1.8084 14.459 
12.6518 -8.21296e-06 16.267 
10.8443 1.80831 16.2667 
14.4595 -8.32401e-06 14.4593 
16.2675 1.80801 14.4593 
16.2675 -8.33206e-06 16.2671 
14.4595 1.80798 16.267 
0.000904618 3.61595 14.459 
1.80961 5.424 14.4579 
1.80845 3.61595 16.2666 
0.000806124 5.42323 16.2667 
3.6165 3.61711 14.4579 
5.42413 5.42537 14.4565 
5.42301 3.61629 16.2659 
3.61593 5.42343 16.266 
7.22999 3.61878 14.4562 
9.03585 5.42537 14.4565 
9.03697 3.61629 16.2659 
7.22999 5.42261 16.2675 
10.8435 3.61711 14.4579 
12.6504 5.424 14.4579 
12.6515 3.61595 16.2666 
10.8441 5.42343 16.266 
14.4591 3.61595 14.459 
16.2675 5.42313 14.4592 
16.2675 3.61567 16.267 
14.4592 5.42323 16.2667 
0.00154801 7.23051 14.4587 
1.80879 7.23051 16.2659 
3.61787 7.23163 14.4565 
5.42239 7.22989 16.2679 
9.03762 -8.49611e-06 9.0375 
12.6537 7.22975 9.0375 
9.01595 7.25153 9.0375 
12.6523 9.03749 18.075 
1.80771 9.03749 6.05883e-08 
0.00134302 9.03749 1.80885 
5.42236 9.03749 6.05884e-08 
3.61511 9.03749 1.80754 
7.22999 9.03749 1.80708 
16.2675 16.2668 7.23041 
10.8449 9.03749 1.80754 
16.2675 9.03749 6.05883e-08 
14.4586 9.03749 1.80885 
0.000679654 10.8446 6.05883e-08 
1.80826 12.6518 6.05883e-08 
1.80879 10.8445 1.80906 
0.000806061 12.6518 1.80831 
3.6149 10.8451 6.05884e-08 
5.42242 12.6526 6.05883e-08 
5.42239 10.8451 1.8071 
3.61593 12.6516 1.80904 
7.22999 10.8451 6.05883e-08 
9.03756 12.6526 6.05883e-08 
9.03759 10.8451 1.8071 
7.22999 12.6524 1.80754 
10.8451 10.8451 6.05883e-08 
12.6517 12.6518 6.05883e-08 
12.6512 10.8445 1.80906 
10.8441 12.6516 1.80904 
14.4593 10.8446 6.05883e-08 
16.2675 12.6519 6.05883e-08 
16.2675 10.8446 1.80819 
14.4592 12.6518 1.80831 
0.000506967 14.4593 6.05883e-08 
1.80817 16.267 6.05883e-08 
1.80845 14.459 1.80841 
0.00047942 16.267 1.80799 
3.61563 14.4592 6.05883e-08 
5.42291 16.2668 6.05883e-08 
5.42301 14.4587 1.80906 
3.61573 16.2667 1.80831 
7.22999 14.4598 6.05883e-08 
9.03708 16.2668 6.05883e-08 
9.03697 14.4587 1.80906 
7.22999 16.2661 1.80885 
10.8443 14.4592 6.05883e-08 
12.6518 16.267 6.05883e-08 
12.6515 14.459 1.80841 
10.8443 16.2667 1.80831 
14.4595 14.4593 6.05884e-08 
16.2675 16.2671 6.05883e-08 
16.2675 14.4593 1.80802 
14.4595 16.267 1.80799 
1.81128 9.03749 3.61879 
3.1824e-05 9.03749 5.42262 
5.42225 9.03749 3.61375 
3.62443 9.03749 5.43194 
9.03773 9.03749 3.61375 
7.22999 9.03749 5.41285 
12.6487 9.03749 3.61879 
10.8355 9.03749 5.43194 
16.2675 9.03749 3.61522 
14.46 9.03749 5.42262 
0.00154799 10.8445 3.6163 
1.80961 12.651 3.61712 
1.81094 10.8434 5.42538 
0.00153046 12.6516 5.42344 
3.61787 10.8434 3.61845 
5.42413 12.6496 3.61845 
5.42798 10.8395 5.42974 
3.619 12.6485 5.42651 
7.22999 10.8452 3.61375 
9.03585 12.6496 3.61845 
9.03201 10.8395 5.42974 
7.22999 12.643 5.43194 
10.8421 10.8434 3.61845 
12.6504 12.651 3.61712 
12.649 10.8434 5.42538 
10.841 12.6485 5.42651 
14.4584 10.8445 3.6163 
16.2675 12.6518 3.61577 
16.2675 10.8451 5.42241 
14.4585 12.6516 5.42344 
0.00090456 14.459 3.61596 
1.80845 16.2666 3.61596 
1.80961 14.4579 5.42401 
0.000805903 16.2667 5.42323 
3.6165 14.4579 3.61712 
5.42301 16.2659 3.6163 
5.42413 14.4565 5.42538 
3.61593 16.266 5.42344 
7.22999 14.4562 3.61879 
9.03697 16.2659 3.6163 
9.03585 14.4565 5.42538 
7.22999 16.2675 5.42262 
10.8435 14.4579 3.61712 
12.6515 16.2666 3.61596 
12.6504 14.4579 5.42401 
10.8441 16.266 5.42344 
14.4591 14.459 3.61596 
16.2675 16.267 3.61568 
16.2675 14.4592 5.42314 
14.4592 16.2667 5.42323 
1.80624 9.03749 7.22976 
5.44403 9.03749 7.25154 
16.2675 9.03749 7.22987 
-0.000404657 10.8451 7.2299 
1.81094 12.6496 7.23164 
3.62223 10.8395 7.23549 
5.42798 12.6453 7.23549 
7.22999 10.8235 7.25154 
9.03201 12.6453 7.23549 
14.4584 14.4587 7.23052 
12.6512 16.2659 7.23052 
10.8378 10.8395 7.23549 
12.649 12.6496 7.23164 
10.8421 14.4565 7.23164 
9.03759 16.2679 7.2299 
14.4604 10.8451 7.2299 
16.2675 12.6526 7.22993 
7.22999 14.4612 7.22976 
5.42239 16.2679 7.2299 
0.00154785 14.4587 7.23052 
1.80879 16.2659 7.23052 
3.61787 14.4565 7.23164 
9.03762 9.03749 6.05883e-08 
12.6537 9.03749 7.22976 
9.01595 9.03749 7.25154 
3.60534 9.03749 9.0375 
1.80624 10.8452 9.0375 
3.17682e-05 12.6524 9.0375 
5.44403 10.8235 9.0375 
3.62443 12.643 9.0375 
1.81128 14.4562 9.0375 
0.00134274 16.2661 9.0375 
5.42225 14.4612 9.0375 
3.61511 16.2675 9.0375 
7.22999 16.2679 9.0375 
16.2675 14.4598 9.0375 
14.4586 16.2661 9.0375 
1.80624 9.03749 10.8452 
3.1824e-05 9.03749 12.6524 
5.44403 9.03749 10.8235 
3.62443 9.03749 12.6431 
-0.000404657 10.8451 10.8451 
1.81094 12.6496 10.8434 
1.81094 10.8434 12.6496 
0.00153046 12.6516 12.6516 
3.62223 10.8395 10.8395 
5.42798 12.6453 10.8395 
5.42798 10.8395 12.6453 
3.619 12.6485 12.6485 
7.22999 10.8235 10.8235 
9.03201 12.6453 10.8395 
9.03201 10.8395 12.6453 
7.22999 12.643 12.6431 
10.8378 10.8395 10.8395 
12.649 12.6496 10.8434 
12.649 10.8434 12.6496 
10.841 12.6485 12.6485 
14.4604 10.8451 10.8451 
16.2675 12.6526 10.8451 
16.2675 10.8451 12.6526 
14.4585 12.6516 12.6516 
0.00154785 14.4587 10.8445 
1.80879 16.2659 10.8445 
1.80961 14.4579 12.651 
0.000805903 16.2667 12.6518 
3.61787 14.4565 10.8434 
5.42239 16.2679 10.8451 
5.42413 14.4565 12.6496 
3.61593 16.266 12.6516 
7.22999 14.4612 10.8452 
9.03759 16.2679 10.8451 
9.03585 14.4565 12.6496 
7.22999 16.2675 12.6524 
10.8421 14.4565 10.8434 
12.6512 16.2659 10.8445 
12.6504 14.4579 12.651 
10.8441 16.266 12.6516 
14.4584 14.4587 10.8445 
16.2675 16.2668 10.8446 
16.2675 14.4592 12.6519 
14.4592 16.2667 12.6518 
1.81128 9.03749 14.4562 
0.00134302 9.03749 16.2661 
5.42225 9.03749 14.4613 
3.61511 9.03749 16.2675 
7.22999 9.03749 16.2679 
16.2675 9.03749 14.4598 
14.4586 9.03749 16.2661 
0.00154799 10.8445 14.4587 
1.80961 12.651 14.4579 
1.80879 10.8445 16.2659 
0.000806061 12.6518 16.2667 
3.61787 10.8434 14.4565 
5.42413 12.6496 14.4565 
5.42239 10.8451 16.2679 
3.61593 12.6516 16.266 
7.22999 10.8452 14.4613 
9.03585 12.6496 14.4565 
9.03759 10.8451 16.2679 
7.22999 12.6524 16.2675 
10.8421 10.8434 14.4565 
12.6504 12.651 14.4579 
12.6512 10.8445 16.2659 
10.8441 12.6516 16.266 
14.4584 10.8445 14.4587 
16.2675 12.6518 14.4592 
16.2675 10.8446 16.2668 
14.4592 12.6518 16.2667 
0.00090456 14.459 14.459 
1.80845 16.2666 14.459 
1.80845 14.459 16.2666 
0.00047942 16.267 16.267 
3.6165 14.4579 14.4579 
5.42301 16.2659 14.4587 
5.42301 14.4587 16.2659 
3.61573 16.2667 16.2667 
7.22999 14.4562 14.4562 
9.03697 16.2659 14.4587 
9.03697 14.4587 16.2659 
7.22999 16.2661 16.2661 
10.8435 14.4579 14.4579 
12.6515 16.2666 14.459 
12.6515 14.459 16.2666 
10.8443 16.2667 16.2667 
14.4591 14.459 14.459 
16.2675 16.267 14.4593 
16.2675 14.4593 16.267 
14.4595 16.267 16.267 
10.8546 9.03749 9.0375 
-0.000424376 9.03749 9.0375 
14.4604 9.03749 9.0375 
9.01595 9.03749 10.8235 
7.22999 9.03749 12.6621 
12.6537 9.03749 10.8452 
10.8449 9.03749 16.2675 
10.8355 9.03749 12.6431 
12.6487 9.03749 14.4562 
16.2675 9.03749 10.8451 
14.46 9.03749 12.6524 
9.03773 9.03749 14.4613 
9.01595 10.8235 9.0375 
7.22999 12.6621 9.0375 
10.8449 16.2675 9.0375 
12.6487 14.4562 9.0375 
12.6537 10.8452 9.0375 
10.8355 12.643 9.0375 
9.03773 14.4612 9.0375 
16.2675 10.8451 9.0375 
14.46 12.6524 9.0375 
