LAMMPS (16 Mar 2018)
Running on 4 partitions of processors
Step MaxReplicaForce MaxAtomForce GradV0 GradV1 GradVc EBF EBR RDT RD1 PE1 RD2 PE2 ... RDN PEN
0    2.8363395    1.1024536 1.4002794e-13   0.20001174    3.1637793   0.98672064   0.98419655     2.499399            0   -1765.1758   0.33333333   -1764.1909   0.66666667   -1764.1891            1   -1765.1733 
500 1.5567481e-06 1.2912222e-07 1.9714952e-12 7.3436691e-09   0.70906043   0.49510114   0.49510114    2.7992674            0   -1765.1758   0.33333336   -1764.6807   0.66666664   -1764.6807            1   -1765.1758 
780 9.8560407e-09 6.7957798e-10 1.1756957e-11 3.9738656e-11   0.70906051    0.4951008    0.4951008      2.79927            0   -1765.1758   0.33333333   -1764.6807   0.66666667   -1764.6807            1   -1765.1758 
Climbing replica = 3
Step MaxReplicaForce MaxAtomForce GradV0 GradV1 GradVc EBF EBR RDT RD1 PE1 RD2 PE2 ... RDN PEN
780   0.70906051   0.49352752 1.1754034e-11 3.9738674e-11   0.70906051    0.4951008    0.4951008      2.79927            0   -1765.1758   0.33333333   -1764.6807   0.66666667   -1764.6807            1   -1765.1758 
1280 7.553615e-07 1.0099898e-07 4.9842556e-13 5.351595e-13 7.537921e-07   0.67115977   0.67115977    2.8475058            0   -1765.1758   0.25629218    -1764.873    0.5125843   -1764.5047            1   -1765.1758 
1483 9.7349744e-09 1.4383778e-09 2.2551117e-13 2.4984236e-13 9.7050768e-09   0.67115977   0.67115977    2.8475069            0   -1765.1758   0.25629218    -1764.873   0.51258437   -1764.5047            1   -1765.1758 
