LAMMPS (16 Mar 2018)
Running on 8 partitions of processors
Step MaxReplicaForce MaxAtomForce GradV0 GradV1 GradVc EBF EBR RDT RD1 PE1 RD2 PE2 ... RDN PEN
0    2.8476713    1.0888704   0.54925614   0.54925614    2.9186934     1.104577     1.104577     2.556191            0   -1765.1435   0.14285714   -1764.9335   0.28571429   -1764.4393   0.42857143   -1764.0389   0.57142857   -1764.0389   0.71428571   -1764.4393   0.85714286   -1764.9335            1   -1765.1435 
500 5.1602214e-07 2.7174406e-07 1.7119398e-10 2.2280802e-10   0.36211463   0.63101462   0.63101462    3.0155194            0   -1765.1758   0.14285721   -1765.0978   0.28571436   -1764.8078   0.42857146   -1764.5448   0.57142854   -1764.5448   0.71428564   -1764.8078   0.85714279   -1765.0978            1   -1765.1758 
1000 6.6362491e-12 2.4435454e-12 1.3563396e-13 1.2883914e-13   0.36211485   0.63101456   0.63101456    3.0155204            0   -1765.1758   0.14285714   -1765.0978   0.28571429   -1764.8078   0.42857143   -1764.5448   0.57142857   -1764.5448   0.71428571   -1764.8078   0.85714286   -1765.0978            1   -1765.1758 
1117 6.3034204e-13 8.970602e-14 1.1489539e-13 1.1125314e-13   0.36211485   0.63101456   0.63101456    3.0155204            0   -1765.1758   0.14285714   -1765.0978   0.28571429   -1764.8078   0.42857143   -1764.5448   0.57142857   -1764.5448   0.71428571   -1764.8078   0.85714286   -1765.0978            1   -1765.1758 
Climbing replica = 5
Step MaxReplicaForce MaxAtomForce GradV0 GradV1 GradVc EBF EBR RDT RD1 PE1 RD2 PE2 ... RDN PEN
1117 6.3034204e-13 8.970602e-14 1.1489539e-13 1.1125314e-13   0.36211485   0.63101456   0.63101456    3.0155204            0   -1765.1758   0.14285714   -1765.0978   0.28571429   -1764.8078   0.42857143   -1764.5448   0.57142857   -1764.5448   0.71428571   -1764.8078   0.85714286   -1765.0978            1   -1765.1758 
1617 1.3324281e-07 6.1272968e-08 2.3346893e-13 2.4128739e-13 1.0664481e-07   0.67115977   0.67115977    3.0284484            0   -1765.1758   0.12600049    -1765.123   0.25200096   -1764.8963    0.3780014   -1764.6231   0.50400182   -1764.5047   0.66933454   -1764.6998   0.83466726    -1765.059            1   -1765.1758 
2095 5.6297359e-13 1.3300472e-13 1.0691238e-13 1.0740595e-13 5.6297359e-13   0.67115977   0.67115977    3.0284488            0   -1765.1758   0.12600046    -1765.123   0.25200091   -1764.8963   0.37800137   -1764.6231   0.50400183   -1764.5047   0.66933455   -1764.6998   0.83466728    -1765.059            1   -1765.1758 
