LAMMPS (16 Mar 2018)
Running on 16 partitions of processors
Step MaxReplicaForce MaxAtomForce GradV0 GradV1 GradVc EBF EBR RDT RD1 PE1 RD2 PE2 ... RDN PEN
0    3.2338347    1.2755981   0.54925614   0.20068262    3.2432988    1.2106517    1.2404634    2.5298678            0   -1765.1435  0.066666667   -1765.1062   0.13333333    -1764.965          0.2   -1764.7535   0.26666667   -1764.5066   0.33333333   -1764.2634          0.4   -1764.0657   0.46666667   -1763.9475   0.53333333   -1763.9328          0.6   -1764.0263   0.66666667   -1764.2089   0.73333333   -1764.4503          0.8   -1764.7081   0.86666667   -1764.9411   0.93333333   -1765.1088            1   -1765.1733 
500 0.0035788011 0.00097285073 1.173693e-13 0.0032476117   0.15842922    0.6643315   0.66431781    3.2080121            0   -1765.1758  0.065190688    -1765.166   0.13042054   -1765.1192   0.19572787   -1765.0137   0.26115026   -1764.8633   0.32672584   -1764.7062   0.39249381   -1764.5798   0.45849441   -1764.5115   0.52476832   -1764.5184   0.59135782   -1764.5992   0.65830617   -1764.7366   0.72565742      -1764.9    0.7934568   -1765.0475   0.86175073   -1765.1397   0.93058359    -1765.172            1   -1765.1758 
1000 0.0026757531 0.0011008649 1.1803973e-13 0.00089304288  0.071166374   0.66956746    0.6695664    3.3134509            0   -1765.1758  0.064976305   -1765.1652   0.12999745   -1765.1145   0.19510624   -1765.0015   0.26034643   -1764.8439    0.3257629   -1764.6845   0.39140145   -1764.5628   0.45730844   -1764.5062   0.52353094   -1764.5316   0.59011642   -1764.6315   0.65711344   -1764.7847   0.72457166   -1764.9532    0.7925417   -1765.0892    0.8610748   -1765.1583   0.93021101   -1765.1749            1   -1765.1758 
1500 0.0025636697 0.0011328607 1.1748933e-13 0.00036991994 0.0092748812   0.67113409   0.67113391    3.3978175            0   -1765.1758  0.064868439   -1765.1645   0.12978767   -1765.1101   0.19480728   -1764.9905   0.25997449    -1764.827   0.32533589   -1764.6662   0.39093863   -1764.5497   0.45682996   -1764.5047   0.52305776    -1764.546   0.58966893    -1764.662   0.65671083   -1764.8264   0.72423068   -1764.9954   0.79227665   -1765.1169   0.86089415   -1765.1674   0.93011439   -1765.1756            1   -1765.1758 
2000 0.0025411981 0.0011201877 1.1831719e-13 0.00013778917  0.044224013   0.67058262    0.6705826    3.4633663            0   -1765.1758  0.064868051   -1765.1638   0.12978813   -1765.1063   0.19481102   -1764.9808   0.25998427   -1764.8127   0.32535433   -1764.6515   0.39096768   -1764.5399   0.45687085   -1764.5052   0.52311071   -1764.5601   0.58973296   -1764.6891   0.65678345   -1764.8611   0.72430783    -1765.027   0.79235129   -1765.1347   0.86095474   -1765.1716   0.93014818   -1765.1758            1   -1765.1758 
2500  0.002537502 0.0010523904 1.1730895e-13 6.4013478e-06   0.12307182   0.66734591   0.66734591     3.542234            0   -1765.1758  0.064920919    -1765.163    0.1298943    -1765.101   0.19497221    -1764.968   0.26020129   -1764.7947    0.3256252   -1764.6336     0.391287   -1764.5291   0.45722953   -1764.5085   0.52349559   -1764.5806   0.59012801   -1764.7251   0.65716942   -1764.9042   0.72466258   -1765.0628   0.79265019   -1765.1514   0.86116943   -1765.1743   0.93026098   -1765.1758            1   -1765.1758 
3000  0.002537494 0.00095817818 1.1766751e-13 5.8457843e-07   0.13651133   0.66629079   0.66629079    3.5526032            0   -1765.1758  0.065042411   -1765.1628   0.13013617   -1765.0998   0.19533198   -1764.9653   0.26067581   -1764.7911   0.32621131   -1764.6301   0.39198117   -1764.5271   0.45802698   -1764.5095   0.52438867    -1764.585   0.59110358   -1764.7325   0.65820408   -1764.9125   0.72571582   -1765.0691   0.79365482   -1765.1538   0.86201831   -1765.1746   0.93078998   -1765.1758            1   -1765.1758 
3500  0.002537494 0.0008815431 1.1738924e-13 1.8412648e-07   0.14292906   0.66574765   0.66574765    3.5561359            0   -1765.1758  0.065130905   -1765.1627   0.13031257   -1765.0993   0.19559483    -1764.964   0.26102263   -1764.7893   0.32663833   -1764.6284   0.39248264   -1764.5262   0.45859414   -1764.5101    0.5250085   -1764.5872    0.5917575   -1764.7359   0.65886679   -1764.9162   0.72635451   -1765.0717   0.79422924   -1765.1548   0.86248271   -1765.1747   0.93109289   -1765.1758            1   -1765.1758 
4000  0.002537494 0.00081713506 1.1722244e-13 7.8286757e-08   0.14822946   0.66527983   0.66527983    3.5592691            0   -1765.1758  0.065204293   -1765.1626   0.13045838   -1765.0988   0.19581088    -1764.963    0.2613053   -1764.7877   0.32698231   -1764.6269   0.39288039   -1764.5254   0.45903518   -1764.5105   0.52547869   -1764.5889   0.59223856   -1764.7386   0.65933578   -1764.9192   0.72678381   -1765.0738    0.7945869   -1765.1555   0.86273329   -1765.1748   0.93119989   -1765.1758            1   -1765.1758 
4500  0.002537494 0.00076192459 1.1751118e-13 4.4197625e-08   0.15287596   0.66485536   0.66485536    3.5614983            0   -1765.1758  0.065281464   -1765.1625   0.13061143   -1765.0984   0.19603699    -1764.962   0.26160001   -1764.7864   0.32733939   -1764.6257   0.39329137   -1764.5247   0.45948896    -1764.511   0.52596109   -1764.5905   0.59273208    -1764.741   0.65981954   -1764.9217   0.72723366   -1765.0755   0.79497594   -1765.1561   0.86303315   -1765.1748   0.93138089   -1765.1758            1   -1765.1758 
5000 0.0025374939 0.00071868666 1.177769e-13 2.9559102e-08   0.15680735   0.66448571   0.66448571    3.5632608            0   -1765.1758  0.065351388   -1765.1625   0.13074984    -1765.098   0.19624082   -1764.9611   0.26186461   -1764.7852   0.32765834   -1764.6246   0.39365632   -1764.5242    0.4598893   -1764.5113   0.52638377   -1764.5918   0.59316155    -1764.743   0.66023778   -1764.9238   0.72762044   -1765.0769   0.79530932   -1765.1566   0.86329058   -1765.1749   0.93154164   -1765.1758            1   -1765.1758 
5500  0.002537494 0.00067988936 1.1718484e-13 2.3511042e-08    0.1602991    0.6641493    0.6641493    3.5652451            0   -1765.1758  0.065407501   -1765.1624   0.13086051   -1765.0977   0.19640286   -1764.9604   0.26207318   -1764.7842   0.32790697   -1764.6236   0.39393672   -1764.5237   0.46019124   -1764.5117   0.52669496   -1764.5929   0.59346769   -1764.7448   0.66052267   -1764.9256   0.72786627   -1765.0782   0.79549704    -1765.157   0.86340032   -1765.1749   0.93155735   -1765.1758            1   -1765.1758 
6000 0.0025374939 0.0006445108 1.1745065e-13 2.1589582e-08   0.16345427   0.66383874   0.66383874    3.5666562            0   -1765.1758  0.065466468   -1765.1624   0.13097686   -1765.0974   0.19657334   -1764.9597   0.26229295   -1764.7833   0.32816963   -1764.6228   0.39423421   -1764.5233   0.46051377    -1764.512   0.52703101    -1764.594   0.59380403   -1764.7464   0.66084457   -1764.9272   0.72815778   -1765.0793   0.79574149   -1765.1573   0.86358135   -1765.1749   0.93165917   -1765.1758            1   -1765.1758 
6500  0.002537494 0.00061300354 1.1791541e-13 2.0588799e-08   0.16627668   0.66355565   0.66355565    3.5677289            0   -1765.1758  0.065523634   -1765.1623   0.13108963   -1765.0971   0.19673854    -1764.959    0.2625059   -1764.7824   0.32842419    -1764.622   0.39452276   -1764.5229   0.46082718   -1764.5123   0.52735866    -1764.595   0.59413395   -1764.7478   0.66116365   -1764.9287   0.72845212   -1765.0802   0.79599693   -1765.1576   0.86378423    -1765.175   0.93179115   -1765.1758            1   -1765.1758 
7000  0.002537494 0.00058377133 1.1729497e-13 2.0210732e-08   0.16891953   0.66328602   0.66328602    3.5690646            0   -1765.1758    0.0655718   -1765.1623   0.13118438   -1765.0968   0.19687669   -1764.9584   0.26268278   -1764.7816   0.32863374   -1764.6213   0.39475749   -1764.5225   0.46107825   -1764.5125   0.52761591   -1764.5958   0.59438609   -1764.7491   0.66139851     -1764.93   0.72865696   -1765.0811   0.79615889   -1765.1579   0.86389093    -1765.175   0.93183499   -1765.1758            1   -1765.1758 
7500  0.002537494 0.00055875525 1.1706099e-13 1.8424583e-08   0.17120585   0.66304921   0.66304921    3.5698171            0   -1765.1758  0.065621373   -1765.1622   0.13128208   -1765.0966   0.19701963   -1764.9579   0.26286674   -1764.7809   0.32885328   -1764.6206   0.39500595   -1764.5222   0.46134782   -1764.5128   0.52789775   -1764.5966   0.59467044   -1764.7503   0.66167498   -1764.9312   0.72891482   -1765.0819    0.7963874   -1765.1582   0.86408007    -1765.175   0.93197239   -1765.1758            1   -1765.1758 
8000  0.002537494 0.00053679674 1.1750818e-13 1.5879916e-08   0.17323361   0.66283641   0.66283641    3.5710848            0   -1765.1758  0.065654646   -1765.1622   0.13134728   -1765.0964   0.19711408   -1764.9575   0.26298657   -1764.7803   0.32899348   -1764.6201   0.39516048   -1764.5219   0.46150961    -1764.513   0.52805887   -1764.5973   0.59482223   -1764.7513   0.66180828   -1764.9322   0.72902024   -1765.0826   0.79645563   -1765.1584   0.86410219    -1765.175   0.93194047   -1765.1758            1   -1765.1758 
8500  0.002537494 0.00051488343 1.1716197e-13 1.6450721e-08   0.17527887   0.66261915   0.66261915    3.5718773            0   -1765.1758   0.06569742   -1765.1622   0.13143144   -1765.0962   0.19723685    -1764.957   0.26314395   -1764.7797   0.32918035   -1764.6195   0.39537063   -1764.5216    0.4617359   -1764.5132   0.52829329    -1764.598   0.59505612   -1764.7523   0.66203252   -1764.9332   0.72922554   -1765.0832   0.79663283   -1765.1586   0.86424282   -1765.1751   0.93203798   -1765.1758            1   -1765.1758 
9000 0.0025374941 0.00049319607 1.1785695e-13 1.6806849e-08   0.17732699   0.66239892   0.66239892     3.572641            0   -1765.1758  0.065741043   -1765.1621   0.13151725    -1765.096   0.19736201   -1764.9565   0.26330438    -1764.779   0.32937081   -1764.6189   0.39558486   -1764.5214   0.46196668   -1764.5134   0.52853259   -1764.5987   0.59529532   -1764.7533   0.66226261   -1764.9343    0.7294374   -1765.0839    0.7968176   -1765.1588    0.8643924   -1765.1751   0.93214174   -1765.1758            1   -1765.1758 
9500  0.002537494 0.00047416964 1.1733685e-13 1.5946388e-08    0.1791552   0.66220009   0.66220009    3.5735946            0   -1765.1758  0.065775141   -1765.1621   0.13158414   -1765.0958    0.1974591   -1764.9561   0.26342796   -1764.7785   0.32951616   -1764.6184   0.39574631   -1764.5211   0.46213777   -1764.5136   0.52870616   -1764.5993   0.59546371   -1764.7542    0.6624179   -1764.9352   0.72957168   -1765.0845   0.79692313    -1765.159   0.86446195   -1765.1751   0.93216514   -1765.1758            1   -1765.1758 
10000  0.002537494 0.00045499592 1.1774181e-13 1.662056e-08   0.18102979   0.66199401   0.66199401    3.5746607            0   -1765.1758  0.065808598   -1765.1621   0.13164969   -1765.0956   0.19755406   -1764.9557   0.26354848   -1764.7779   0.32965736   -1764.6179   0.39590237   -1764.5209   0.46230203   -1764.5138   0.52887135      -1764.6   0.59562207   -1764.7552   0.66256144   -1764.9361   0.72969243   -1765.0851   0.79701341   -1765.1592   0.86451462   -1765.1751   0.93217312   -1765.1758            1   -1765.1758 
Climbing replica = 8
Step MaxReplicaForce MaxAtomForce GradV0 GradV1 GradVc EBF EBR RDT RD1 PE1 RD2 PE2 ... RDN PEN
10000   0.18102979    0.1256722  1.19606e-13 1.6620559e-08   0.18102979   0.66199401   0.66199401    3.5746607            0   -1765.1758  0.065808598   -1765.1621   0.13164969   -1765.0956   0.19755406   -1764.9557   0.26354848   -1764.7779   0.32965736   -1764.6179   0.39590237   -1764.5209   0.46230203   -1764.5138   0.52887135      -1764.6   0.59562207   -1764.7552   0.66256144   -1764.9361   0.72969243   -1765.0851   0.79701341   -1765.1592   0.86451462   -1765.1751   0.93217312   -1765.1758            1   -1765.1758 
10500  0.002537494 0.00070481239 1.1760212e-13 1.8430136e-07 1.8610069e-05   0.67115977   0.67115977    3.5914349            0   -1765.1758  0.062594067   -1765.1638   0.12505095   -1765.1066   0.18726575   -1764.9826   0.24918405   -1764.8173   0.31080935   -1764.6585   0.37220124   -1764.5462   0.43346408   -1764.5047   0.50484439   -1764.5604   0.57610832   -1764.7072   0.64716509   -1764.8986   0.71797088    -1765.067   0.78854189   -1765.1553   0.85896033   -1765.1749   0.92938237   -1765.1758            1   -1765.1758 
11000 0.0025374939 0.00049134457 1.1723154e-13 9.4032179e-08 1.0293006e-05   0.67115977   0.67115977    3.5942733            0   -1765.1758  0.062331623    -1765.164   0.12457852   -1765.1072   0.18666414   -1764.9839   0.24855013   -1764.8187   0.31023848   -1764.6595   0.37177076   -1764.5465   0.43321726   -1764.5047   0.50434066   -1764.5601   0.57539464   -1764.7063   0.64632705   -1764.8975   0.71711736   -1765.0662    0.7877854   -1765.1551   0.85839482   -1765.1749   0.92906582   -1765.1758            1   -1765.1758 
11500  0.002537494 0.00034644477 1.1761626e-13 5.6398371e-08 7.5435185e-06   0.67115977   0.67115977    3.5959088            0   -1765.1758  0.062185569    -1765.164   0.12430661   -1765.1076   0.18631222   -1764.9847   0.24817604   -1764.8196    0.3098995   -1764.6601   0.37151173   -1764.5467   0.43306266   -1764.5047   0.50405355     -1764.56   0.57500199   -1764.7059   0.64587798   -1764.8969   0.71667431   -1765.0659   0.78741283   -1765.1551    0.8581466   -1765.1749   0.92897292   -1765.1758            1   -1765.1758 
12000  0.002537494 0.00023997463 1.1702568e-13 3.7655458e-08  6.41151e-06   0.67115977   0.67115977    3.5976707            0   -1765.1758  0.062061405   -1765.1641    0.1240778   -1765.1078   0.18601395   -1764.9852   0.24785149   -1764.8202   0.30959139   -1764.6605   0.37125384   -1764.5468   0.43287356   -1764.5047   0.50376881   -1764.5599   0.57464199   -1764.7056   0.64547978   -1764.8967   0.71628498   -1765.0658   0.78708077   -1765.1551   0.85791178   -1765.1749   0.92885618   -1765.1758            1   -1765.1758 
12500  0.002537494 0.00016737884 1.1723362e-13 2.7739108e-08 6.0054768e-06   0.67115977   0.67115977    3.5990923            0   -1765.1758  0.061972105   -1765.1641    0.1239127    -1765.108   0.18579723   -1764.9856   0.24761282   -1764.8206   0.30936013   -1764.6608   0.37105323   -1764.5469    0.4327164   -1764.5047   0.50355607   -1764.5599   0.57438776   -1764.7055   0.64520972   -1764.8966   0.71603153   -1765.0658    0.7868771   -1765.1551   0.85778487   -1765.1749   0.92881781   -1765.1758            1   -1765.1758 
13000  0.002537494 0.00011544097 1.1668095e-13 2.3572928e-08 5.8487026e-06   0.67115977   0.67115977    3.6005945            0   -1765.1758  0.061899566   -1765.1641   0.12377734   -1765.1082   0.18561639   -1764.9859   0.24740783    -1764.821    0.3091521    -1764.661   0.37085889    -1764.547   0.43254498   -1764.5047   0.50335006   -1764.5598   0.57415734   -1764.7055   0.64497335   -1764.8966   0.71581243    -1765.066   0.78669875   -1765.1552   0.85766592   -1765.1749   0.92876628   -1765.1758            1   -1765.1758 
13500  0.002537494 0.0001342102 1.1656982e-13 2.0916618e-08 5.7913464e-06   0.67115977   0.67115977    3.6020498            0   -1765.1758  0.061843141   -1765.1641   0.12367103   -1765.1082   0.18547183   -1764.9861   0.24723934   -1764.8212   0.30897386   -1764.6611   0.37068215    -1764.547   0.43237596   -1764.5047    0.5031633   -1764.5599   0.57395964   -1764.7056   0.64477698   -1764.8968   0.71563274   -1765.0662   0.78655104   -1765.1553   0.85756185   -1765.1749   0.92871021   -1765.1758            1   -1765.1758 
14000  0.002537494 0.0001557163 1.170102e-13 1.9181785e-08 5.7714608e-06   0.67115977   0.67115977     3.603362            0   -1765.1758  0.061798859   -1765.1642   0.12358699   -1765.1083    0.1853561   -1764.9862    0.2471018   -1764.8213   0.30882432   -1764.6612    0.3705284   -1764.5471    0.4322223   -1764.5047   0.50300501   -1764.5599   0.57380133   -1764.7057   0.64462697    -1764.897   0.71550129   -1765.0664   0.78644815   -1765.1555   0.85749476   -1765.1749   0.92867955   -1765.1758            1   -1765.1758 
14500  0.002537494 0.0001697338 1.1736894e-13 1.8859195e-08 5.7678714e-06   0.67115977   0.67115977    3.6046703            0   -1765.1758   0.06176072   -1765.1642   0.12351398   -1765.1083   0.18525402   -1764.9863    0.2469778   -1764.8214   0.30868547   -1764.6613   0.37038032   -1764.5471   0.43206809   -1764.5047   0.50285429   -1764.5599   0.57365731   -1764.7059   0.64449534   -1764.8973   0.71538899   -1765.0667    0.7863617   -1765.1556   0.85743846   -1765.1749   0.92865355   -1765.1758            1   -1765.1758 
15000  0.002537494 0.00017778162 1.1728558e-13 1.8438322e-08 5.7721457e-06   0.67115977   0.67115977    3.6059201            0   -1765.1758  0.061728579   -1765.1642   0.12345193   -1765.1084   0.18516603   -1764.9864   0.24686874   -1764.8215   0.30856016   -1764.6613   0.37024261   -1764.5471    0.4319201   -1764.5047   0.50271512     -1764.56   0.57352899   -1764.7061   0.64438145   -1764.8976   0.71529376    -1765.067   0.78628888   -1765.1557   0.85739001    -1765.175   0.92862865   -1765.1758            1   -1765.1758 
15500 0.0025374941 0.00018181506 1.1712767e-13 1.6627679e-08 5.7795425e-06   0.67115977   0.67115977    3.6071535            0   -1765.1758  0.061700342   -1765.1642   0.12339694   -1765.1084   0.18508692   -1764.9864   0.24676874   -1764.8215   0.30844248   -1764.6613    0.3701098   -1764.5471   0.43177357   -1764.5047   0.50257844     -1764.56   0.57340336   -1764.7062   0.64426894   -1764.8979   0.71519672   -1765.0673   0.78620918   -1765.1558   0.85732804    -1765.175   0.92858021   -1765.1758            1   -1765.1758 
16000  0.002537494 0.00018325029 1.1692987e-13 1.5887289e-08 5.7891229e-06   0.67115977   0.67115977    3.6085246            0   -1765.1758  0.061671537   -1765.1642   0.12334045   -1765.1084   0.18500471   -1764.9864   0.24666325   -1764.8216   0.30831613   -1764.6614    0.3699645   -1764.5471   0.43161038   -1764.5047   0.50242622   -1764.5601   0.57326284   -1764.7064   0.64414134   -1764.8982   0.71508328   -1765.0676   0.78611057   -1765.1559   0.85724367    -1765.175   0.92851145   -1765.1758            1   -1765.1758 
16500  0.002537494 0.00018269241 1.1717138e-13 1.7008419e-08 5.7996884e-06   0.67115977   0.67115977    3.6096419            0   -1765.1758  0.061648639   -1765.1642   0.12329545   -1765.1084   0.18493901   -1764.9865   0.24657858   -1764.8216   0.30821419   -1764.6614   0.36984666   -1764.5471   0.43147738   -1764.5047   0.50231072   -1764.5602   0.57316517   -1764.7066     0.644062   -1764.8985    0.7150226   -1765.0679    0.7860683   -1765.1561   0.85721855    -1765.175   0.92850069   -1765.1758            1   -1765.1758 
17000  0.002537494 0.00018086984 1.1762381e-13 1.6969448e-08 5.8103353e-06   0.67115977   0.67115977    3.6106671            0   -1765.1758  0.061628525   -1765.1642   0.12325576   -1765.1084   0.18488071   -1764.9865   0.24650286   -1764.8216   0.30812222   -1764.6614   0.36973936   -1764.5471   0.43135528   -1764.5047   0.50220738   -1764.5602   0.57308066   -1764.7068    0.6439963   -1764.8989   0.71497544   -1765.0682   0.78603884   -1765.1562   0.85720511    -1765.175   0.92850121   -1765.1758            1   -1765.1758 
17500  0.002537494 0.00017826737 1.1710869e-13 1.5854511e-08 5.8208893e-06   0.67115977   0.67115977    3.6113951            0   -1765.1758  0.061614285   -1765.1642   0.12322766   -1765.1084   0.18483942   -1764.9865   0.24644919   -1764.8216     0.308057   -1764.6614   0.36966324   -1764.5471   0.43126861   -1764.5047    0.5021447   -1764.5603   0.57304184    -1764.707   0.64398103   -1764.8992   0.71498303   -1765.0684   0.78606809   -1765.1563   0.85725437    -1765.175   0.92856706   -1765.1758            1   -1765.1758 
18000  0.002537494 0.00017508473 1.1736971e-13 1.5658732e-08 5.831265e-06   0.67115977   0.67115977    3.6123006            0   -1765.1758  0.061597566   -1765.1642   0.12319449   -1765.1084   0.18479026   -1764.9865   0.24638463   -1764.8216    0.3079776   -1764.6614   0.36956945   -1764.5471    0.4311607   -1764.5047   0.50205659   -1764.5603   0.57297329   -1764.7072    0.6439315   -1764.8995   0.71495157   -1765.0687   0.78605323   -1765.1564   0.85725404    -1765.175   0.92857747   -1765.1758            1   -1765.1758 
18500  0.002537494 0.00017159899 1.1721633e-13 1.5505347e-08 5.8414548e-06   0.67115977   0.67115977    3.6132245            0   -1765.1758  0.061580915   -1765.1642   0.12316137   -1765.1084   0.18474101   -1764.9865   0.24631965   -1764.8216    0.3078973   -1764.6614   0.36947417   -1764.5471   0.43105059   -1764.5047   0.50196526   -1764.5604   0.57290041   -1764.7074   0.64387638   -1764.8998   0.71491311    -1765.069   0.78602981   -1765.1565   0.85724354    -1765.175   0.92857571   -1765.1758            1   -1765.1758 
19000  0.002537494 0.00016782679 1.1710784e-13 1.5510043e-08 5.8516973e-06   0.67115977   0.67115977     3.614255            0   -1765.1758  0.061562705   -1765.1642   0.12312509   -1765.1084    0.1846869   -1764.9865     0.246248   -1764.8216    0.3078084   -1764.6614   0.36936825   -1764.5471   0.43092779   -1764.5047   0.50185936   -1764.5604   0.57281103   -1764.7076   0.64380271   -1764.9001   0.71485388   -1765.0693   0.78598328   -1765.1566   0.85720736    -1765.175   0.92854538   -1765.1758            1   -1765.1758 
19500 0.0025374939 0.00016393877 1.171323e-13 1.557371e-08 5.8618543e-06   0.67115977   0.67115977    3.6153472            0   -1765.1758  0.061543643   -1765.1642   0.12308706   -1765.1084   0.18463007   -1764.9865   0.24617259   -1764.8216   0.30771462   -1764.6614   0.36925626   -1764.5471   0.43079768   -1764.5047   0.50174464   -1764.5605   0.57271127   -1764.7078   0.64371705   -1764.9004     0.714781   -1765.0695   0.78592138   -1765.1567   0.85715401   -1765.1751   0.92849829   -1765.1758            1   -1765.1758 
20000 0.0025374939 0.00016007618 1.1732164e-13 1.5282279e-08 5.8715822e-06   0.67115977   0.67115977    3.6163729            0   -1765.1758  0.061525868   -1765.1642   0.12305157   -1765.1084     0.184577   -1764.9865   0.24610207   -1764.8216    0.3076268   -1764.6614   0.36915125   -1764.5471   0.43067555   -1764.5047   0.50163765   -1764.5605     0.572619    -1764.708   0.64363862   -1764.9007   0.71471508   -1765.0698   0.78586618   -1765.1569    0.8571073   -1765.1751   0.92845999   -1765.1758            1   -1765.1758 
