LAMMPS (16 Mar 2018)
Running on 16 partitions of processors
Step MaxReplicaForce MaxAtomForce GradV0 GradV1 GradVc EBF EBR RDT RD1 PE1 RD2 PE2 ... RDN PEN
0    2.9383512    1.1318968   0.54925614   0.54925614    2.9550651    1.1512612    1.1512612     2.556191            0   -1765.1435  0.066666667   -1765.1039   0.13333333   -1764.9602          0.2   -1764.7493   0.26666667   -1764.5082   0.33333333   -1764.2761          0.4   -1764.0938   0.46666667   -1763.9922   0.53333333   -1763.9922          0.6   -1764.0938   0.66666667   -1764.2761   0.73333333   -1764.5082          0.8   -1764.7493   0.86666667   -1764.9602   0.93333333   -1765.1039            1   -1765.1435 
500  0.032399532 0.0076123988 2.1558733e-13  0.001892068  0.088280086   0.66891078   0.66890586    3.5910442            0   -1765.1758  0.059080408   -1765.1655   0.11820789   -1765.1165   0.17745543   -1765.0069    0.2369479   -1764.8521   0.29687934   -1764.6928   0.35752369   -1764.5679   0.41923934   -1764.5069   0.48246532   -1764.5313   0.54771539   -1764.6393   0.61553634   -1764.8108   0.68641888   -1764.9987   0.76063255   -1765.1309   0.83798738   -1765.1728   0.91773338   -1765.1758            1   -1765.1758 
1000  0.032360368 0.0062948552 2.155348e-13 0.0008923983  0.066337895   0.66979233   0.66979123    3.5872823            0   -1765.1758   0.05929944   -1765.1654   0.11870347    -1765.116   0.17832326   -1765.0053   0.23831563   -1764.8492   0.29889678   -1764.6887   0.36034734   -1764.5642   0.42300939    -1764.506   0.48727312    -1764.536   0.55354301   -1764.6506   0.62218545    -1764.827   0.69344926   -1765.0131   0.76737293    -1765.137   0.84366548   -1765.1733   0.92163411   -1765.1758            1   -1765.1758 
1500  0.032352185 0.0054916272 2.1608971e-13 0.00046389493  0.050523347   0.67040134   0.67040104    3.5926064            0   -1765.1758  0.059430099   -1765.1653    0.1189955   -1765.1154   0.17884087   -1765.0036   0.23914727    -1764.846   0.30014044   -1764.6846   0.36209243   -1764.5608   0.42531291   -1764.5054   0.49013076   -1764.5402   0.55685406   -1764.6599    0.6257283   -1764.8393   0.69688102   -1765.0231   0.77026957   -1765.1408    0.8456126   -1765.1737   0.92231656   -1765.1758            1   -1765.1758 
2000   0.03234997 0.0048207805 2.1590693e-13 0.00024070437  0.033128143   0.67083332   0.67083324    3.5967098            0   -1765.1758  0.059619872   -1765.1652   0.11940226   -1765.1147   0.17951956   -1765.0014   0.24016673   -1764.8423   0.30156872   -1764.6802   0.36397939   -1764.5573    0.4276701    -1764.505   0.49291022   -1764.5444    0.5599314   -1764.6687     0.628899   -1764.8501   0.69987013   -1765.0315   0.77276268   -1765.1439   0.84730263    -1765.174   0.92300651   -1765.1758            1   -1765.1758 
2500  0.032349389 0.0043580753 2.1612365e-13 0.00012907508  0.017166264   0.67107191   0.67107189    3.5963891            0   -1765.1758  0.059903562   -1765.1651   0.11999154   -1765.1138   0.18045372   -1764.9991   0.24149106   -1764.8385   0.30332205   -1764.6759   0.36617996   -1764.5541    0.4303014   -1764.5047   0.49590859   -1764.5483   0.56317778   -1764.6764   0.63221923   -1764.8592   0.70304999   -1765.0382   0.77556958   -1765.1462   0.84951822   -1765.1742    0.9244913   -1765.1758            1   -1765.1758 
3000   0.03234922 0.0039654691 2.1578392e-13 6.8110457e-05 0.0013560004   0.67115926   0.67115925    3.5946667            0   -1765.1758  0.060249864   -1765.1649   0.12069915   -1765.1128   0.18154867   -1764.9966   0.24300068   -1764.8345   0.30526406   -1764.6714    0.3685507    -1764.551   0.43306526   -1764.5047   0.49899007   -1764.5523   0.56645825   -1764.6839    0.6355406   -1764.8677   0.70622577   -1765.0443   0.77840399   -1765.1483   0.85183352   -1765.1744    0.9261141   -1765.1758            1   -1765.1758 
3500  0.032349173  0.003618923 2.1579556e-13 3.6810773e-05  0.013518519   0.67110521   0.67110521    3.5963449            0   -1765.1758  0.060552201   -1765.1648   0.12131143   -1765.1118   0.18248372    -1764.994   0.24426874   -1764.8304   0.30686401   -1764.6671   0.37046238    -1764.548   0.43524107   -1764.5047   0.50135057   -1764.5561   0.56889187   -1764.6908   0.63790805   -1764.8753    0.7083695   -1765.0496   0.78016236     -1765.15   0.85306012   -1765.1745   0.92669113   -1765.1758            1   -1765.1758 
4000   0.03234916  0.003304391 2.1603034e-13 2.030591e-05   0.02794279   0.67092659   0.67092659     3.597367            0   -1765.1758  0.060882949   -1765.1646   0.12197564   -1765.1107   0.18348384   -1764.9912   0.24560199   -1764.8263   0.30851587   -1764.6628   0.37240035   -1764.5452   0.43740965   -1764.5049   0.50366832   -1764.5599   0.57125258   -1764.6973   0.64018522   -1764.8823   0.71042444   -1765.0544   0.78185596   -1765.1515   0.85426972   -1765.1746    0.9273249   -1765.1758            1   -1765.1758 
4500  0.032349156 0.0030380484 2.1577497e-13 1.1814474e-05  0.042076006    0.6706378    0.6706378    3.5981519            0   -1765.1758  0.061226677   -1765.1644   0.12266166   -1765.1096   0.18450717   -1764.9884    0.2469496   -1764.8221   0.31016296   -1764.6586   0.37430485   -1764.5425   0.43951032   -1764.5052   0.50588351   -1764.5635   0.57348224   -1764.7035    0.6423148   -1764.8888   0.71233174   -1765.0586   0.78342081   -1765.1528   0.85538707   -1765.1747   0.92792826   -1765.1758            1   -1765.1758 
5000  0.032349155 0.0028095199 2.1579063e-13 7.5138471e-06  0.054297264   0.67027604   0.67027604    3.5988918            0   -1765.1758  0.061546136   -1765.1642   0.12329226   -1765.1085   0.18543881   -1764.9858   0.24816618   -1764.8182   0.31163874   -1764.6547   0.37599738   -1764.5402   0.44136013   -1764.5055   0.50781453   -1764.5669   0.57540456    -1764.709   0.64412879   -1764.8945   0.71393359   -1765.0623   0.78471001   -1765.1538   0.85627704   -1765.1748   0.92835682   -1765.1758            1   -1765.1758 
5500  0.032349155 0.0026026979 2.1563074e-13 5.2223177e-06  0.064780585   0.66986623   0.66986623    3.6002141            0   -1765.1758  0.061822515   -1765.1641   0.12384136   -1765.1075   0.18625317   -1764.9832    0.2492281   -1764.8146   0.31291656   -1764.6512   0.37744827   -1764.5381   0.44292751   -1764.5059    0.5094282   -1764.5701   0.57698338    -1764.714    0.6455848   -1764.8996   0.71517708   -1765.0656   0.78565586   -1765.1548   0.85685235   -1765.1749   0.92849867   -1765.1758            1   -1765.1758 
6000  0.032349155 0.0024216414 2.1568081e-13 3.8188051e-06   0.07416594   0.66943502   0.66943502    3.6045563            0   -1765.1758  0.062059201   -1765.1639   0.12431501   -1765.1065   0.18693666   -1764.9808   0.25008921   -1764.8113   0.31391725    -1764.648   0.37854237   -1764.5362   0.44405918   -1764.5064   0.51053198    -1764.573   0.57798634   -1764.7185   0.64640948   -1764.9041    0.7157456   -1765.0684   0.78589475   -1765.1556   0.85669613   -1765.1749   0.92793608   -1765.1758            1   -1765.1758 
6500  0.032349155 0.0022658296 2.1579812e-13 3.1074834e-06  0.085718818   0.66896938   0.66896938     3.600885            0   -1765.1758  0.062415322   -1765.1637    0.1250117   -1765.1056    0.1879619   -1764.9786   0.25141811   -1764.8082   0.31551353    -1764.645   0.38036031   -1764.5344   0.44604478   -1764.5068   0.51262375   -1764.5757   0.58011885   -1764.7227   0.64851417   -1764.9083   0.71775423    -1765.071    0.7877436   -1765.1563   0.85833499    -1765.175   0.92933546   -1765.1758            1   -1765.1758 
7000  0.032349155 0.0021411964 2.1596547e-13 2.7898084e-06   0.10004888   0.66846147   0.66846147    3.6002458            0   -1765.1758  0.062699323   -1765.1636   0.12557138   -1765.1047   0.18878074   -1764.9764   0.25247005   -1764.8052   0.31676261   -1764.6422   0.38176116   -1764.5329   0.44754425   -1764.5073   0.51416158   -1764.5784   0.58163174   -1764.7267   0.64993723   -1764.9121   0.71902369   -1765.0733   0.78880054   -1765.1569   0.85913492    -1765.175   0.92981277   -1765.1758            1   -1765.1758 
7500  0.032349155 0.0019656113 2.157951e-13 2.9754215e-06    0.1163202   0.66783354   0.66783354     3.599553            0   -1765.1758  0.062992394   -1765.1634   0.12614757   -1765.1037    0.1896216   -1764.9742    0.2535468   -1764.8021   0.31803608   -1764.6393   0.38318335   -1764.5313   0.44906045    -1764.508   0.51571025   -1764.5811   0.58314601   -1764.7307   0.65134852    -1764.916   0.72026483   -1765.0757   0.78981119   -1765.1576   0.85987437   -1765.1751   0.93027143   -1765.1758            1   -1765.1758 
8000  0.032349155 0.0018152078 2.1593989e-13 2.6582766e-06   0.12412622   0.66726621   0.66726621    3.6008641            0   -1765.1758  0.063192245   -1765.1633   0.12652988   -1765.1029   0.19017219   -1764.9722   0.25425141   -1764.7995   0.31886817   -1764.6369   0.38410513     -1764.53   0.45002508   -1764.5085   0.51666569   -1764.5834     0.584037   -1764.7341   0.65211835   -1764.9192   0.72085908   -1765.0776   0.79018135   -1765.1581   0.85997891   -1765.1751   0.93006619   -1765.1758            1   -1765.1758 
8500  0.032349154 0.0016903042 2.1634056e-13 2.3281659e-06   0.13123321   0.66671747   0.66671747    3.6037237            0   -1765.1758  0.063347709   -1765.1632   0.12684281   -1765.1021   0.19062767   -1764.9704   0.25482168   -1764.7971   0.31952156   -1764.6346   0.38480537   -1764.5288   0.45073001   -1764.5091   0.51732852   -1764.5855   0.58460847   -1764.7372   0.65254941   -1764.9222   0.72110394   -1765.0793   0.79019965   -1765.1586   0.85973327   -1765.1751   0.92957052   -1765.1758            1   -1765.1758 
9000  0.032349154 0.0015777823 2.1567885e-13 2.1527215e-06   0.13790016   0.66617447   0.66617447     3.599745            0   -1765.1758  0.063625322    -1765.163   0.12739019   -1765.1014   0.19142802   -1764.9687    0.2558506   -1764.7948   0.32074905   -1764.6326    0.3861964   -1764.5277   0.45224518   -1764.5096   0.51892531   -1764.5876   0.58624306   -1764.7401    0.6541787   -1764.9249   0.72268794   -1765.0809   0.79170346    -1765.159   0.86112972   -1765.1752   0.93080732   -1765.1758            1   -1765.1758 
9500  0.032349154 0.0014741887 2.1599607e-13 2.0466358e-06   0.14417424    0.6656384    0.6656384    3.6048071            0   -1765.1758  0.063734785   -1765.1629   0.12760057   -1765.1007   0.19172195   -1764.9671   0.25620333   -1764.7927   0.32113025   -1764.6306   0.38657095   -1764.5267   0.45257412   -1764.5102   0.51916714   -1764.5895   0.58635554   -1764.7428   0.65412074   -1764.9274   0.72242152   -1765.0824   0.79119537   -1765.1594    0.8603502   -1765.1752   0.92975321   -1765.1758            1   -1765.1758 
10000  0.032349154 0.0013797192 2.1577899e-13 2.0499733e-06   0.15003441   0.66511565   0.66511565    3.6014915            0   -1765.1758  0.063981312   -1765.1628   0.12808567      -1765.1    0.1924296   -1764.9655   0.25711075   -1764.7906   0.32220957   -1764.6288   0.38779002   -1764.5258   0.45389759   -1764.5107   0.52055776   -1764.5913   0.58777594   -1764.7453   0.65553553   -1764.9298   0.72379941   -1765.0838   0.79250981   -1765.1598   0.86157926   -1765.1752    0.9308995   -1765.1758            1   -1765.1758 
Climbing replica = 8
Step MaxReplicaForce MaxAtomForce GradV0 GradV1 GradVc EBF EBR RDT RD1 PE1 RD2 PE2 ... RDN PEN
10000  0.032349154 0.0013797192 2.1577899e-13 2.0499733e-06   0.15003441   0.66511565   0.66511565    3.6014915            0   -1765.1758  0.063981312   -1765.1628   0.12808567      -1765.1    0.1924296   -1764.9655   0.25711075   -1764.7906   0.32220957   -1764.6288   0.38779002   -1764.5258   0.45389759   -1764.5107   0.52055776   -1764.5913   0.58777594   -1764.7453   0.65553553   -1764.9298   0.72379941   -1765.0838   0.79250981   -1765.1598   0.86157926   -1765.1752    0.9308995   -1765.1758            1   -1765.1758 
