LAMMPS (16 Mar 2018)
Running on 16 partitions of processors
Step MaxReplicaForce MaxAtomForce GradV0 GradV1 GradVc EBF EBR RDT RD1 PE1 RD2 PE2 ... RDN PEN
0    3.3674933    1.2736944   0.96837705   0.54929843    3.3768098    1.2422933    8.1041482    2.5293444            0   -1758.2816  0.066666667   -1758.2167   0.13333333   -1758.0488          0.2   -1757.8156   0.26666667   -1757.5577   0.33333333   -1757.3162          0.4   -1757.1332   0.46666667   -1757.0393   0.53333333   -1757.0535          0.6   -1757.1711   0.66666667   -1757.3684   0.73333333   -1757.6111          0.8   -1757.8578   0.86666667   -1758.0692   0.93333333   -1758.2104            1   -1765.1435 
500     22.66408    21.044514    3.2226583  0.027371882    5.3883767    98.454343    125.32452    80.489097            0   -1738.3055  0.039700585   -1699.9759  0.089482933   -1703.8861   0.16411332   -1645.6414   0.24471861   -1686.9654    0.3213362   -1712.5992   0.36324674   -1747.6642   0.41361644   -1701.5563    0.5186062   -1674.0758   0.63827105   -1695.7315   0.71290601   -1725.2712   0.76266085   -1726.4374     0.806082   -1741.1135   0.84986545   -1724.8225   0.92127058   -1639.8512            1   -1765.1757 
1000    4.8903609    2.7794431     1.648138 0.0094623598    4.1473764    104.40256    127.25723    69.619792            0   -1742.3211  0.035013012   -1723.9572  0.083311578   -1701.6733   0.15856149   -1651.2349   0.24566765   -1678.6553   0.32169175   -1717.2762   0.36449118   -1749.7761   0.40941388   -1719.5038   0.50860961   -1680.6307   0.62723038    -1702.789    0.6957119   -1732.6971   0.74576889   -1724.9026   0.78963673   -1754.3762    0.8360885   -1706.1116   0.91075501   -1637.9186            1   -1765.1758 
Climbing replica = 15
Step MaxReplicaForce MaxAtomForce GradV0 GradV1 GradVc EBF EBR RDT RD1 PE1 RD2 PE2 ... RDN PEN
1000    5.2377928    2.7794431     1.648138    5.2377928    4.1473764    104.40256   -84.655935    69.619792            0   -1742.3211  0.035013012   -1723.9572  0.083311578   -1701.6733   0.15856149   -1651.2349   0.24566765   -1678.6553   0.32169175   -1717.2762   0.36449118   -1749.7761   0.40941388   -1719.5038   0.50860961   -1680.6307   0.62723038    -1702.789    0.6957119   -1732.6971   0.74576889   -1724.9026   0.78963673   -1754.3762    0.8360885   -1706.1116   0.91075501   -1637.9186            1   -1553.2626 
