4
Atoms. Timestep: 0
1 0.1 0.1 0.1
1 3.415 0.1 0.1
1 0.1 3.215 0.1
1 0.1 0.1 3.715
4
Atoms. Timestep: 34
1 0.0909927 -0.055068 0.309417
1 2.30044 0.633299 0.665846
1 0.574137 2.2146 0.622028
1 0.749432 0.722171 2.41771
