4
Atoms. Timestep: 0
1 0.1 0.1 0.1
1 3.415 0.1 0.1
1 0.1 3.215 0.1
1 0.1 0.1 3.715
4
Atoms. Timestep: 1
1 0.1 0.1 0.1
1 3.415 0.1 0.1
1 0.1 3.215 0.1
1 0.1 0.1 3.715
4
Atoms. Timestep: 2
1 0.100573 0.100265 0.101531
1 3.41437 0.100002 0.100046
1 0.0999994 3.21471 0.100014
1 0.100058 0.100025 3.71341
4
Atoms. Timestep: 3
1 0.101721 0.100794 0.104594
1 3.41311 0.100006 0.100137
1 0.0999981 3.21412 0.100043
1 0.100175 0.100076 3.71023
4
Atoms. Timestep: 4
1 0.103441 0.101589 0.109175
1 3.41121 0.100012 0.100273
1 0.099996 3.21325 0.100086
1 0.100348 0.100151 3.70547
4
Atoms. Timestep: 5
1 0.105735 0.102651 0.115247
1 3.4087 0.100019 0.100451
1 0.0999924 3.21208 0.100141
1 0.100575 0.100249 3.69916
4
Atoms. Timestep: 6
1 0.108601 0.103982 0.122768
1 3.40556 0.100027 0.100667
1 0.0999868 3.21062 0.100207
1 0.100851 0.100368 3.69136
4
Atoms. Timestep: 7
1 0.112381 0.105745 0.132577
1 3.40144 0.100035 0.100941
1 0.0999771 3.2087 0.10029
1 0.101204 0.100519 3.68119
4
Atoms. Timestep: 8
1 0.117296 0.108051 0.145142
1 3.3961 0.100041 0.10128
1 0.0999609 3.2062 0.100388
1 0.101642 0.100705 3.66819
4
Atoms. Timestep: 9
1 0.123613 0.11104 0.160982
1 3.38928 0.100044 0.101685
1 0.0999342 3.20299 0.1005
1 0.102172 0.100929 3.65183
4
Atoms. Timestep: 10
1 0.131655 0.114887 0.18066
1 3.38066 0.100037 0.102153
1 0.0998902 3.19889 0.10062
1 0.102797 0.101189 3.63157
4
Atoms. Timestep: 11
1 0.141807 0.119814 0.204755
1 3.36986 0.100012 0.102667
1 0.0998183 3.19369 0.100734
1 0.103512 0.101481 3.60684
4
Atoms. Timestep: 12
1 0.154526 0.126097 0.233841
1 3.35647 0.0999542 0.103196
1 0.0997008 3.18716 0.100818
1 0.1043 0.101792 3.57715
4
Atoms. Timestep: 13
1 0.170342 0.134087 0.268442
1 3.34002 0.099841 0.103681
1 0.0995095 3.17897 0.100827
1 0.105131 0.102102 3.54205
4
Atoms. Timestep: 14
1 0.189857 0.14422 0.309006
1 3.31999 0.0996339 0.104026
1 0.0991983 3.16877 0.100689
1 0.105956 0.102376 3.50128
4
Atoms. Timestep: 15
1 0.213728 0.157047 0.355868
1 3.29589 0.0992693 0.104081
1 0.0986888 3.15612 0.100288
1 0.106696 0.102561 3.45476
4
Atoms. Timestep: 16
1 0.242665 0.17325 0.409206
1 3.26725 0.098647 0.103622
1 0.0978556 3.14053 0.0994313
1 0.107232 0.102568 3.40274
4
Atoms. Timestep: 17
1 0.277379 0.193646 0.469033
1 3.23372 0.0976075 0.102341
1 0.0964973 3.12149 0.0978271
1 0.107403 0.102257 3.3458
4
Atoms. Timestep: 18
1 0.318549 0.219224 0.535205
1 3.19523 0.0958765 0.0998106
1 0.0942704 3.0985 0.0950245
1 0.106952 0.101397 3.28496
4
Atoms. Timestep: 19
1 0.366782 0.251217 0.607254
1 3.15226 0.0929298 0.0953922
1 0.0905395 3.07132 0.0902831
1 0.105415 0.0995304 3.22207
4
Atoms. Timestep: 20
1 0.422088 0.290892 0.683149
1 3.1071 0.0876243 0.0880992
1 0.0840201 3.04088 0.0823631
1 0.101789 0.0956088 3.16139
4
Atoms. Timestep: 21
1 0.422088 0.290892 0.683149
1 3.1071 0.0876243 0.0880992
1 0.0840201 3.04088 0.0823631
1 0.101789 0.0956088 3.16139
4
Atoms. Timestep: 22
1 0.422114 0.290941 0.683108
1 3.10715 0.0875896 0.0880702
1 0.0839826 3.04089 0.0823287
1 0.101757 0.0955759 3.16149
4
Atoms. Timestep: 23
1 0.422168 0.29104 0.683027
1 3.10723 0.0875203 0.0880122
1 0.0839076 3.04093 0.0822598
1 0.101693 0.09551 3.1617
4
Atoms. Timestep: 24
1 0.422248 0.291189 0.682905
1 3.10736 0.0874162 0.0879253
1 0.0837951 3.04098 0.0821564
1 0.101597 0.0954112 3.16201
4
Atoms. Timestep: 25
1 0.422355 0.291388 0.682742
1 3.10753 0.0872775 0.0878093
1 0.0836451 3.04106 0.0820185
1 0.101469 0.0952795 3.16243
4
Atoms. Timestep: 26
1 0.422489 0.291635 0.682539
1 3.10774 0.0871041 0.0876643
1 0.0834576 3.04115 0.0818462
1 0.10131 0.0951149 3.16295
4
Atoms. Timestep: 27
1 0.422666 0.291962 0.682272
1 3.10802 0.0868751 0.0874727
1 0.08321 3.04127 0.0816186
1 0.101099 0.0948975 3.16364
4
Atoms. Timestep: 28
1 0.422896 0.292387 0.681925
1 3.10839 0.086577 0.0872231
1 0.0828877 3.04142 0.0813223
1 0.100825 0.0946145 3.16453
4
Atoms. Timestep: 29
1 0.423193 0.292934 0.68148
1 3.10886 0.0861931 0.0869013
1 0.0824725 3.04162 0.0809406
1 0.100471 0.0942502 3.16568
4
Atoms. Timestep: 30
1 0.423571 0.29363 0.680916
1 3.10947 0.0857028 0.0864901
1 0.0819425 3.04188 0.0804532
1 0.100021 0.0937853 3.16714
4
Atoms. Timestep: 31
1 0.42405 0.294511 0.680206
1 3.11023 0.0850813 0.085968
1 0.0812707 3.04221 0.079835
1 0.0994496 0.0931961 3.16899
4
Atoms. Timestep: 32
1 0.424654 0.295617 0.679319
1 3.11119 0.0842978 0.0853088
1 0.0804239 3.04263 0.0790557
1 0.0987301 0.0924538 3.17132
4
Atoms. Timestep: 33
1 0.425412 0.296998 0.678221
1 3.1124 0.0833149 0.0844801
1 0.0793619 3.04316 0.0780777
1 0.0978282 0.0915235 3.17422
4
Atoms. Timestep: 34
1 0.426358 0.298716 0.676871
1 3.1139 0.0820867 0.0834419
1 0.0780354 3.04384 0.0768552
1 0.0967025 0.0903622 3.17783
4
Atoms. Timestep: 35
1 0.427535 0.30084 0.675223
1 3.11578 0.080557 0.0821449
1 0.0763839 3.04469 0.0753321
1 0.0953024 0.0889178 3.1823
4
Atoms. Timestep: 36
1 0.428997 0.303456 0.673227
1 3.1181 0.0786572 0.0805281
1 0.0743338 3.04576 0.0734397
1 0.0935664 0.0871268 3.1878
4
Atoms. Timestep: 37
1 0.430807 0.306665 0.670834
1 3.12098 0.0763029 0.078516
1 0.071795 3.04712 0.0710937
1 0.0914196 0.0849118 3.19456
4
Atoms. Timestep: 38
1 0.433046 0.310585 0.667994
1 3.12453 0.0733907 0.076015
1 0.0686575 3.04885 0.0681909
1 0.0887711 0.0821788 3.2028
4
Atoms. Timestep: 39
1 0.435812 0.315353 0.664666
1 3.12889 0.0697937 0.0729092
1 0.0647864 3.05104 0.0646049
1 0.0855105 0.0788134 3.21282
4
Atoms. Timestep: 40
1 0.439227 0.32113 0.66083
1 3.13425 0.0653555 0.0690559
1 0.0600172 3.05384 0.0601815
1 0.0815044 0.0746764 3.22493
4
Atoms. Timestep: 41
1 0.443447 0.328099 0.656504
1 3.14081 0.0598835 0.06428
1 0.0541483 3.05742 0.0547331
1 0.0765917 0.0695991 3.23948
4
Atoms. Timestep: 42
1 0.448669 0.336471 0.651775
1 3.14882 0.0531398 0.0583702
1 0.0469337 3.06201 0.0480334
1 0.0705807 0.0633766 3.25682
4
Atoms. Timestep: 43
1 0.455152 0.346488 0.646843
1 3.15853 0.0448298 0.0510788
1 0.0380725 3.06792 0.0398138
1 0.0632464 0.0557617 3.27726
4
Atoms. Timestep: 44
1 0.463238 0.358433 0.6421
1 3.17023 0.0345886 0.0421323
1 0.0271997 3.07552 0.029766
1 0.0543369 0.0464597 3.301
4
Atoms. Timestep: 45
1 0.473394 0.37264 0.638246
1 3.18413 0.0219694 0.0312736
1 0.0138788 3.08526 0.0175632
1 0.0436012 0.0351333 3.32792
4
Atoms. Timestep: 46
1 0.486242 0.389501 0.63646
1 3.20025 0.00645513 0.0183857
1 -0.00237581 3.09759 0.00294043
1 0.0308872 0.0214498 3.35721
4
Atoms. Timestep: 47
1 0.502487 0.409383 0.63846
1 3.21802 -0.012396 0.00381699
1 -0.0219415 3.11272 -0.0140551
1 0.016431 0.00528905 3.38678
4
Atoms. Timestep: 48
1 0.522314 0.432157 0.645891
1 3.2359 -0.0344139 -0.0112436
1 -0.0445615 3.13 -0.0326692
1 0.00134288 -0.0127396 3.41302
4
Atoms. Timestep: 49
1 0.522314 0.432157 0.645891
1 3.2359 -0.0344139 -0.0112436
1 -0.0445615 3.13 -0.0326692
1 0.00134288 -0.0127396 3.41302
4
Atoms. Timestep: 50
1 0.522596 0.432336 0.646577
1 3.23544 -0.0345787 -0.0108977
1 -0.0447016 3.1299 -0.0325341
1 0.00166358 -0.0126523 3.41186
4
Atoms. Timestep: 51
1 0.523159 0.432692 0.647948
1 3.23452 -0.0349092 -0.0102052
1 -0.0449827 3.12969 -0.0322637
1 0.00230542 -0.0124777 3.40952
4
Atoms. Timestep: 52
1 0.523989 0.433215 0.649984
1 3.23315 -0.0354079 -0.00917232
1 -0.0454067 3.12941 -0.0318606
1 0.00326304 -0.012218 3.40605
4
Atoms. Timestep: 53
1 0.52506 0.433884 0.652643
1 3.23139 -0.0360804 -0.00781056
1 -0.045978 3.12907 -0.0313301
1 0.00452591 -0.0118782 3.4015
4
Atoms. Timestep: 54
1 0.52633 0.434664 0.655865
1 3.2293 -0.0369365 -0.00613595
1 -0.0467047 3.12874 -0.0306793
1 0.00607937 -0.0114657 3.39595
4
Atoms. Timestep: 55
1 0.527881 0.435591 0.65994
1 3.22672 -0.0380995 -0.00397031
1 -0.0476903 3.12845 -0.029841
1 0.00808862 -0.0109433 3.38887
4
Atoms. Timestep: 56
1 0.529672 0.436611 0.664925
1 3.22372 -0.0396813 -0.00122495
1 -0.0490273 3.12838 -0.0287849
1 0.0106348 -0.0103051 3.38008
4
Atoms. Timestep: 57
1 0.531555 0.437571 0.670769
1 3.22051 -0.0418574 0.00218743
1 -0.0508583 3.12885 -0.0274849
1 0.013794 -0.0095646 3.36953
4
Atoms. Timestep: 58
1 0.53318 0.438155 0.677114
1 3.21762 -0.0448478 0.00627196
1 -0.0533566 3.13048 -0.0259521
1 0.0175565 -0.0087884 3.35757
4
Atoms. Timestep: 59
1 0.534147 0.438053 0.683262
1 3.21569 -0.0486718 0.0107927
1 -0.0565232 3.13371 -0.0242849
1 0.0216831 -0.00809479 3.34523
4
Atoms. Timestep: 60
1 0.534147 0.438053 0.683262
1 3.21569 -0.0486718 0.0107927
1 -0.0565232 3.13371 -0.0242849
1 0.0216831 -0.00809479 3.34523
4
Atoms. Timestep: 61
1 0.534031 0.437947 0.683143
1 3.21587 -0.0487503 0.0107985
1 -0.0565829 3.13392 -0.0242864
1 0.0216802 -0.00812158 3.34534
4
Atoms. Timestep: 62
1 0.5338 0.437736 0.682906
1 3.21623 -0.0489074 0.01081
1 -0.0567025 3.13435 -0.0242896
1 0.0216743 -0.00817515 3.34557
4
Atoms. Timestep: 63
1 0.533455 0.43742 0.682552
1 3.21676 -0.049143 0.0108277
1 -0.0568818 3.13498 -0.0242939
1 0.0216661 -0.00825507 3.34591
4
Atoms. Timestep: 64
1 0.532999 0.437004 0.682086
1 3.21746 -0.0494568 0.0108524
1 -0.0571204 3.13581 -0.0242986
1 0.0216564 -0.00836049 3.34636
4
Atoms. Timestep: 65
1 0.532438 0.43649 0.681514
1 3.21833 -0.0498487 0.0108855
1 -0.057418 3.13685 -0.0243026
1 0.021647 -0.00849012 3.3469
4
Atoms. Timestep: 66
1 0.531713 0.435826 0.680777
1 3.21946 -0.0503658 0.0109333
1 -0.0578097 3.1382 -0.0243043
1 0.0216395 -0.00865741 3.34759
4
Atoms. Timestep: 67
1 0.530797 0.434984 0.679853
1 3.22088 -0.0510388 0.011003
1 -0.0583183 3.13992 -0.0242999
1 0.0216387 -0.00886833 3.34844
4
Atoms. Timestep: 68
1 0.529664 0.433942 0.678721
1 3.22265 -0.0519072 0.0111064
1 -0.0589716 3.14209 -0.0242822
1 0.0216538 -0.00912796 3.34945
4
Atoms. Timestep: 69
1 0.5283 0.432681 0.67738
1 3.2248 -0.0530234 0.0112645
1 -0.0598061 3.14478 -0.024237
1 0.0217033 -0.00943857 3.35059
4
Atoms. Timestep: 70
1 0.526718 0.431211 0.675867
1 3.22733 -0.0544639 0.0115167
1 -0.0608722 3.14805 -0.0241349
1 0.0218256 -0.00979444 3.35175
4
Atoms. Timestep: 71
1 0.52503 0.429627 0.674341
1 3.2301 -0.0563213 0.0119361
1 -0.0622231 3.15186 -0.023916
1 0.0220973 -0.0101651 3.35264
4
Atoms. Timestep: 72
1 0.52503 0.429627 0.674341
1 3.2301 -0.0563213 0.0119361
1 -0.0622231 3.15186 -0.023916
1 0.0220973 -0.0101651 3.35264
4
Atoms. Timestep: 73
1 0.525047 0.429641 0.674367
1 3.23008 -0.0563462 0.011952
1 -0.062238 3.15187 -0.023903
1 0.0221135 -0.0101603 3.35258
4
Atoms. Timestep: 74
1 0.52508 0.429669 0.674419
1 3.23004 -0.0563961 0.0119838
1 -0.062268 3.15188 -0.0238772
1 0.0221459 -0.0101507 3.35247
4
Atoms. Timestep: 75
1 0.52513 0.429711 0.674496
1 3.22999 -0.0564708 0.0120314
1 -0.062313 3.1519 -0.0238385
1 0.0221945 -0.0101365 3.35231
4
Atoms. Timestep: 76
1 0.525195 0.429766 0.674598
1 3.22992 -0.0565707 0.0120947
1 -0.0623729 3.15192 -0.0237869
1 0.0222589 -0.0101177 3.35209
4
Atoms. Timestep: 77
1 0.525276 0.429835 0.674724
1 3.22983 -0.0566957 0.0121735
1 -0.0624478 3.15196 -0.0237226
1 0.0223389 -0.0100947 3.35182
4
Atoms. Timestep: 78
1 0.52538 0.429923 0.674886
1 3.22972 -0.0568611 0.0122767
1 -0.0625465 3.152 -0.0236378
1 0.0224435 -0.0100652 3.35147
4
Atoms. Timestep: 79
1 0.525512 0.430036 0.675091
1 3.22958 -0.0570773 0.0124099
1 -0.062675 3.15207 -0.0235279
1 0.0225781 -0.0100281 3.35103
4
Atoms. Timestep: 80
1 0.525674 0.430175 0.675344
1 3.22942 -0.057357 0.0125794
1 -0.0628401 3.15216 -0.0233867
1 0.0227485 -0.00998295 3.35046
4
Atoms. Timestep: 81
1 0.525869 0.430345 0.675648
1 3.22922 -0.0577165 0.0127921
1 -0.0630504 3.1523 -0.0232074
1 0.0229613 -0.00992954 3.34977
4
Atoms. Timestep: 82
1 0.526096 0.430547 0.676002
1 3.229 -0.0581761 0.0130558
1 -0.0633161 3.1525 -0.0229814
1 0.0232226 -0.0098691 3.34892
4
Atoms. Timestep: 83
1 0.526349 0.430778 0.676396
1 3.22876 -0.058761 0.0133777
1 -0.0636482 3.15279 -0.0226988
1 0.0235378 -0.00980518 3.34793
4
Atoms. Timestep: 84
1 0.52661 0.431031 0.676802
1 3.22854 -0.0594988 0.0137623
1 -0.0640569 3.15321 -0.0223496
1 0.0239076 -0.00974545 3.34679
4
Atoms. Timestep: 85
1 0.526852 0.43129 0.677172
1 3.22837 -0.0604103 0.0142062
1 -0.0645447 3.15382 -0.0219272
1 0.0243234 -0.0097028 3.34555
4
Atoms. Timestep: 86
1 0.527037 0.431536 0.677442
1 3.2283 -0.061497 0.014695
1 -0.0650996 3.15465 -0.0214324
1 0.0247649 -0.00969358 3.3443
4
Atoms. Timestep: 87
1 0.527131 0.431753 0.677547
1 3.22836 -0.0627416 0.0152065
1 -0.0656962 3.15572 -0.020871
1 0.0252044 -0.00973481 3.34312
4
Atoms. Timestep: 88
1 0.527105 0.431934 0.677425
1 3.22858 -0.0641147 0.0157148
1 -0.0662966 3.15703 -0.0202493
1 0.0256093 -0.00984431 3.34211
4
Atoms. Timestep: 89
1 0.526939 0.432088 0.677018
1 3.22896 -0.0655726 0.0161887
1 -0.066845 3.15853 -0.0195716
1 0.0259411 -0.0100414 3.34136
4
Atoms. Timestep: 90
1 0.526939 0.432088 0.677018
1 3.22896 -0.0655726 0.0161887
1 -0.066845 3.15853 -0.0195716
1 0.0259411 -0.0100414 3.34136
4
Atoms. Timestep: 91
1 0.526924 0.432094 0.676977
1 3.22897 -0.065568 0.0161771
1 -0.0668212 3.15853 -0.0195651
1 0.0259232 -0.0100555 3.34141
4
Atoms. Timestep: 92
1 0.526893 0.432106 0.676895
1 3.22899 -0.0655588 0.016154
1 -0.0667735 3.15854 -0.0195521
1 0.0258872 -0.0100839 3.3415
4
Atoms. Timestep: 93
1 0.526847 0.432125 0.676773
1 3.22902 -0.0655451 0.0161193
1 -0.0667018 3.15855 -0.0195323
1 0.0258334 -0.0101263 3.34164
4
Atoms. Timestep: 94
1 0.526788 0.432152 0.676612
1 3.22906 -0.0655271 0.0160736
1 -0.0666058 3.15856 -0.0195053
1 0.0257621 -0.0101827 3.34182
4
Atoms. Timestep: 95
1 0.526716 0.432188 0.676416
1 3.2291 -0.0655049 0.0160173
1 -0.0664852 3.15857 -0.0194701
1 0.0256736 -0.0102529 3.34204
4
Atoms. Timestep: 96
1 0.526626 0.432243 0.676163
1 3.22914 -0.0654765 0.0159444
1 -0.0663246 3.15858 -0.0194212
1 0.0255579 -0.010345 3.34231
4
Atoms. Timestep: 97
1 0.526518 0.432325 0.675848
1 3.22919 -0.0654411 0.0158525
1 -0.0661131 3.15858 -0.0193529
1 0.0254096 -0.010464 3.34265
4
Atoms. Timestep: 98
1 0.526395 0.43245 0.675466
1 3.22922 -0.0653987 0.0157394
1 -0.0658376 3.15856 -0.0192571
1 0.0252231 -0.0106153 3.34305
4
Atoms. Timestep: 99
1 0.526264 0.432639 0.675023
1 3.22923 -0.0653514 0.0156054
1 -0.0654841 3.15852 -0.0191224
1 0.0249942 -0.0108039 3.34349
4
Atoms. Timestep: 100
1 0.526138 0.432916 0.674538
1 3.22918 -0.0653044 0.0154545
1 -0.0650431 3.15842 -0.0189365
1 0.0247238 -0.0110325 3.34394
4
Atoms. Timestep: 101
1 0.526033 0.433301 0.67404
1 3.22906 -0.0652667 0.0152945
1 -0.064513 3.15827 -0.0186878
1 0.0244173 -0.0113006 3.34435
4
Atoms. Timestep: 102
1 0.525961 0.433814 0.673561
1 3.22885 -0.065252 0.0151356
1 -0.0638969 3.15805 -0.0183648
1 0.0240826 -0.0116077 3.34467
4
Atoms. Timestep: 103
1 0.525929 0.434468 0.673136
1 3.22854 -0.0652808 0.0149896
1 -0.0632002 3.15777 -0.0179527
1 0.0237277 -0.0119564 3.34483
4
Atoms. Timestep: 104
1 0.525936 0.435259 0.672799
1 3.22814 -0.0653832 0.0148729
1 -0.0624464 3.15747 -0.017442
1 0.0233673 -0.0123471 3.34477
4
Atoms. Timestep: 105
1 0.525953 0.436107 0.672574
1 3.22773 -0.065586 0.0148039
1 -0.0617112 3.15724 -0.0168617
1 0.0230331 -0.0127616 3.34448
4
Atoms. Timestep: 106
1 0.525932 0.436958 0.67242
1 3.22736 -0.0659067 0.0147807
1 -0.0610185 3.15716 -0.0162224
1 0.0227234 -0.0132087 3.34402
4
Atoms. Timestep: 107
1 0.525832 0.437761 0.67228
1 3.22712 -0.0663439 0.0147937
1 -0.0603832 3.15728 -0.0155432
1 0.0224326 -0.0136929 3.34347
4
Atoms. Timestep: 108
1 0.525626 0.438478 0.672105
1 3.22703 -0.0668881 0.0148326
1 -0.0598102 3.15763 -0.0148402
1 0.0221541 -0.0142167 3.3429
4
Atoms. Timestep: 109
1 0.5253 0.439092 0.671859
1 3.22711 -0.0675284 0.0148884
1 -0.0592952 3.15822 -0.0141227
1 0.0218821 -0.0147828 3.34237
4
Atoms. Timestep: 110
1 0.524851 0.439605 0.67152
1 3.22736 -0.0682534 0.0149551
1 -0.0588253 3.15904 -0.0133921
1 0.0216123 -0.0153946 3.34192
4
Atoms. Timestep: 111
1 0.524297 0.440046 0.671078
1 3.22773 -0.0690528 0.0150298
1 -0.0583744 3.16006 -0.0126372
1 0.0213431 -0.0160577 3.34153
4
Atoms. Timestep: 112
1 0.523688 0.440499 0.670555
1 3.22812 -0.069912 0.0151144
1 -0.0578861 3.16119 -0.0118239
1 0.021077 -0.0167823 3.34115
4
Atoms. Timestep: 113
1 0.523133 0.441044 0.67004
1 3.22837 -0.0707606 0.0152035
1 -0.0573337 3.16224 -0.0109669
1 0.020826 -0.0175255 3.34072
4
Atoms. Timestep: 114
1 0.522687 0.441702 0.669588
1 3.22844 -0.071552 0.0152897
1 -0.0567186 3.1631 -0.0100906
1 0.0205948 -0.0182528 3.34021
4
Atoms. Timestep: 115
1 0.522376 0.442493 0.669223
1 3.22828 -0.0722627 0.0153653
1 -0.056036 3.16372 -0.00920432
1 0.0203818 -0.0189504 3.33962
4
Atoms. Timestep: 116
1 0.522205 0.443425 0.668944
1 3.22789 -0.0728803 0.0154195
1 -0.0552784 3.16407 -0.00831115
1 0.0201794 -0.0196163 3.33895
4
Atoms. Timestep: 117
1 0.522156 0.444493 0.668722
1 3.22731 -0.0734007 0.0154359
1 -0.0544365 3.16417 -0.00741149
1 0.019972 -0.0202592 3.33825
4
Atoms. Timestep: 118
1 0.522174 0.445673 0.668482
1 3.22659 -0.0738299 0.0153883
1 -0.0534999 3.16406 -0.00650425
1 0.0197313 -0.0209031 3.33763
4
Atoms. Timestep: 119
1 0.522166 0.446871 0.668134
1 3.2259 -0.0741975 0.015265
1 -0.0525019 3.16389 -0.00560571
1 0.0194364 -0.0215681 3.33721
4
Atoms. Timestep: 120
1 0.522073 0.448003 0.667643
1 3.22533 -0.0745363 0.015079
1 -0.0514947 3.16379 -0.0047362
1 0.0190906 -0.0222552 3.33701
4
Atoms. Timestep: 121
1 0.521856 0.449017 0.666991
1 3.22496 -0.0748718 0.0148433
1 -0.050512 3.16382 -0.00390384
1 0.0186983 -0.022966 3.33707
4
Atoms. Timestep: 122
1 0.5215 0.449888 0.666179
1 3.22481 -0.0752258 0.0145723
1 -0.0495753 3.16404 -0.00310804
1 0.0182666 -0.0237017 3.33736
4
Atoms. Timestep: 123
1 0.521005 0.450617 0.665227
1 3.22489 -0.0756192 0.0142853
1 -0.0486992 3.16446 -0.00233928
1 0.0178064 -0.0244617 3.33783
4
Atoms. Timestep: 124
1 0.520397 0.451234 0.664186
1 3.22516 -0.0760809 0.0140141
1 -0.047893 3.16509 -0.00156828
1 0.0173372 -0.0252458 3.33837
4
Atoms. Timestep: 125
1 0.51978 0.451836 0.663199
1 3.22547 -0.0766182 0.0138079
1 -0.0471553 3.16581 -0.000759834
1 0.0169018 -0.0260286 3.33875
4
Atoms. Timestep: 126
1 0.51978 0.451836 0.663199
1 3.22547 -0.0766182 0.0138079
1 -0.0471553 3.16581 -0.000759834
1 0.0169018 -0.0260286 3.33875
4
Atoms. Timestep: 127
1 0.519795 0.451856 0.663222
1 3.22545 -0.0766283 0.0138203
1 -0.0471548 3.1658 -0.000745661
1 0.0169088 -0.0260295 3.3387
4
Atoms. Timestep: 128
1 0.519823 0.451897 0.663268
1 3.22541 -0.0766486 0.0138452
1 -0.0471538 3.16578 -0.000717255
1 0.0169227 -0.0260313 3.3386
4
Atoms. Timestep: 129
1 0.519866 0.451958 0.663336
1 3.22534 -0.0766794 0.0138823
1 -0.0471523 3.16576 -0.000674615
1 0.0169433 -0.0260344 3.33846
4
Atoms. Timestep: 130
1 0.51992 0.452037 0.663423
1 3.22526 -0.0767212 0.0139316
1 -0.0471504 3.16572 -0.000617711
1 0.0169698 -0.0260397 3.33826
4
Atoms. Timestep: 131
1 0.519984 0.452134 0.663525
1 3.22516 -0.076775 0.0139927
1 -0.047148 3.16569 -0.000546327
1 0.017001 -0.0260486 3.33803
4
Atoms. Timestep: 132
1 0.520059 0.452255 0.663647
1 3.22505 -0.0768493 0.014073
1 -0.0471447 3.16566 -0.000451234
1 0.0170387 -0.026065 3.33773
4
Atoms. Timestep: 133
1 0.52014 0.452401 0.66378
1 3.22492 -0.0769524 0.0141764
1 -0.0471401 3.16565 -0.0003258
1 0.0170807 -0.0260954 3.33737
4
Atoms. Timestep: 134
1 0.520214 0.452567 0.663902
1 3.2248 -0.077092 0.0143042
1 -0.047133 3.16567 -0.00016573
1 0.0171207 -0.0261493 3.33696
4
Atoms. Timestep: 135
1 0.520266 0.452738 0.663988
1 3.22471 -0.0772673 0.0144508
1 -0.0471219 3.16576 2.49262e-05
1 0.0171509 -0.0262325 3.33654
4
Atoms. Timestep: 136
1 0.520266 0.452738 0.663988
1 3.22471 -0.0772673 0.0144508
1 -0.0471219 3.16576 2.49262e-05
1 0.0171509 -0.0262325 3.33654
4
Atoms. Timestep: 137
1 0.52026 0.452737 0.663978
1 3.22471 -0.0772718 0.0144523
1 -0.0471207 3.16577 2.82963e-05
1 0.0171478 -0.0262378 3.33654
4
Atoms. Timestep: 138
1 0.520248 0.452734 0.663957
1 3.22473 -0.0772808 0.0144551
1 -0.0471184 3.1658 3.50519e-05
1 0.0171414 -0.0262483 3.33655
4
Atoms. Timestep: 139
1 0.520231 0.45273 0.663927
1 3.22475 -0.0772944 0.0144595
1 -0.0471148 3.16583 4.52598e-05
1 0.017132 -0.0262641 3.33657
4
Atoms. Timestep: 140
1 0.520209 0.452724 0.663886
1 3.22478 -0.0773124 0.0144655
1 -0.0471099 3.16587 5.90557e-05
1 0.0171193 -0.0262851 3.33659
4
Atoms. Timestep: 141
1 0.520182 0.452719 0.663836
1 3.22482 -0.0773349 0.0144733
1 -0.0471035 3.16593 7.66643e-05
1 0.0171036 -0.0263115 3.33661
4
Atoms. Timestep: 142
1 0.520147 0.452713 0.663771
1 3.22486 -0.0773646 0.0144841
1 -0.0470944 3.166 0.000100599
1 0.0170829 -0.0263463 3.33664
4
Atoms. Timestep: 143
1 0.520105 0.452709 0.663689
1 3.22492 -0.0774031 0.0144991
1 -0.0470814 3.16609 0.000133014
1 0.0170559 -0.0263918 3.33668
4
Atoms. Timestep: 144
1 0.520055 0.452709 0.663586
1 3.22499 -0.0774527 0.0145202
1 -0.0470627 3.16619 0.000176946
1 0.0170213 -0.0264505 3.33672
4
Atoms. Timestep: 145
1 0.519999 0.45272 0.663462
1 3.22506 -0.0775152 0.0145499
1 -0.0470356 3.16632 0.000236418
1 0.0169775 -0.0265254 3.33675
4
Atoms. Timestep: 146
1 0.519942 0.452747 0.663318
1 3.22513 -0.0775921 0.0145913
1 -0.0469967 3.16646 0.000315669
1 0.0169234 -0.0266185 3.33677
4
Atoms. Timestep: 147
1 0.519891 0.4528 0.663159
1 3.22519 -0.0776831 0.0146473
1 -0.0469431 3.16661 0.000417856
1 0.0168587 -0.0267303 3.33678
4
Atoms. Timestep: 148
1 0.519853 0.452887 0.662989
1 3.22524 -0.0777872 0.0147204
1 -0.0468717 3.16676 0.000545541
1 0.0167833 -0.0268606 3.33675
4
Atoms. Timestep: 149
1 0.519836 0.453017 0.662814
1 3.22525 -0.0779036 0.0148143
1 -0.0467786 3.1669 0.000702012
1 0.0166965 -0.0270099 3.33667
4
Atoms. Timestep: 150
1 0.51985 0.453202 0.662636
1 3.22521 -0.078032 0.0149345
1 -0.0466584 3.16701 0.000892017
1 0.0165961 -0.0271797 3.33654
4
Atoms. Timestep: 151
1 0.519907 0.453457 0.662454
1 3.22512 -0.078173 0.0150896
1 -0.0465035 3.16709 0.0011221
1 0.0164771 -0.0273742 3.33633
4
Atoms. Timestep: 152
1 0.520011 0.453783 0.662264
1 3.22497 -0.0783226 0.0152844
1 -0.0463118 3.16713 0.00138885
1 0.0163357 -0.027592 3.33606
4
Atoms. Timestep: 153
1 0.520154 0.454159 0.662045
1 3.22477 -0.0784767 0.0155201
1 -0.0460885 3.16715 0.0016796
1 0.0161666 -0.0278305 3.33576
4
Atoms. Timestep: 154
1 0.520326 0.454555 0.661757
1 3.22455 -0.0786378 0.0158124
1 -0.0458459 3.16717 0.00197981
1 0.01597 -0.0280864 3.33545
4
Atoms. Timestep: 155
1 0.520533 0.454956 0.661324
1 3.22432 -0.0788157 0.0162078
1 -0.0455876 3.16723 0.00228341
1 0.015735 -0.0283662 3.33518
4
Atoms. Timestep: 156
1 0.520747 0.455341 0.660745
1 3.22412 -0.0790124 0.0166882
1 -0.0453177 3.16735 0.00258387
1 0.0154501 -0.0286753 3.33498
4
Atoms. Timestep: 157
1 0.520952 0.455697 0.66003
1 3.22399 -0.0792292 0.0172365
1 -0.0450389 3.16755 0.00287515
1 0.0151015 -0.0290182 3.33486
4
Atoms. Timestep: 158
1 0.521139 0.45602 0.659203
1 3.22394 -0.0794666 0.01784
1 -0.0447509 3.16785 0.00315218
1 0.0146723 -0.0293988 3.3348
4
Atoms. Timestep: 159
1 0.521319 0.456324 0.658306
1 3.22399 -0.0797233 0.0184921
1 -0.0444488 3.16822 0.00341515
1 0.0141414 -0.0298197 3.33479
4
Atoms. Timestep: 160
1 0.521519 0.456643 0.657403
1 3.22411 -0.0799925 0.0191868
1 -0.0441246 3.16862 0.00367398
1 0.0134938 -0.0302756 3.33474
4
Atoms. Timestep: 161
1 0.521764 0.45701 0.656561
1 3.22427 -0.0802601 0.019909
1 -0.0437763 3.169 0.00394265
1 0.0127446 -0.0307485 3.33459
4
Atoms. Timestep: 162
1 0.522071 0.457444 0.655821
1 3.22442 -0.0805137 0.0206451
1 -0.0434041 3.16929 0.00423479
1 0.0119167 -0.0312211 3.3343
4
Atoms. Timestep: 163
1 0.522444 0.457954 0.655194
1 3.22454 -0.0807444 0.0213889
1 -0.0430068 3.16947 0.00456585
1 0.0110236 -0.0316837 3.33385
4
Atoms. Timestep: 164
1 0.52288 0.458543 0.654662
1 3.22463 -0.0809463 0.0221392
1 -0.0425824 3.16954 0.00495559
1 0.0100686 -0.0321338 3.33324
4
Atoms. Timestep: 165
1 0.523361 0.459201 0.654172
1 3.22472 -0.0811163 0.0228976
1 -0.042129 3.16949 0.00543086
1 0.00904526 -0.0325779 3.3325
4
Atoms. Timestep: 166
1 0.523847 0.459897 0.65363
1 3.22485 -0.0812563 0.0236618
1 -0.0416528 3.16939 0.00601655
1 0.00795217 -0.03303 3.33169
4
Atoms. Timestep: 167
1 0.5243 0.460601 0.652947
1 3.22506 -0.0813743 0.0244163
1 -0.0411782 3.16927 0.0067271
1 0.00682242 -0.0334961 3.33091
4
Atoms. Timestep: 168
1 0.524697 0.4613 0.652027
1 3.22536 -0.0814766 0.0251584
1 -0.0407189 3.16917 0.00759528
1 0.00566245 -0.0339946 3.33022
4
Atoms. Timestep: 169
1 0.525019 0.461962 0.650861
1 3.22578 -0.0815684 0.0258885
1 -0.040279 3.16915 0.00858729
1 0.00447851 -0.034547 3.32966
4
Atoms. Timestep: 170
1 0.525271 0.462575 0.64946
1 3.22631 -0.0816532 0.0266127
1 -0.0398597 3.16926 0.00967606
1 0.00327486 -0.035181 3.32925
4
Atoms. Timestep: 171
1 0.525486 0.463158 0.647856
1 3.22692 -0.0817308 0.0273447
1 -0.039458 3.16951 0.0108437
1 0.00205415 -0.0359337 3.32896
4
Atoms. Timestep: 172
1 0.525733 0.463764 0.64613
1 3.22751 -0.0817958 0.0281059
1 -0.0390662 3.16988 0.0120756
1 0.000823474 -0.0368448 3.32869
4
Atoms. Timestep: 173
1 0.526086 0.464451 0.644419
1 3.22798 -0.0818407 0.0289048
1 -0.0386766 3.1703 0.0133395
1 -0.000393514 -0.0379108 3.32834
4
Atoms. Timestep: 174
1 0.52658 0.465249 0.642831
1 3.22828 -0.0818601 0.0297384
1 -0.0382848 3.17072 0.0146054
1 -0.00157591 -0.0391047 3.32783
4
Atoms. Timestep: 175
1 0.527231 0.466174 0.641427
1 3.22837 -0.0818501 0.0306047
1 -0.0378872 3.17109 0.0158578
1 -0.00271571 -0.040412 3.32711
4
Atoms. Timestep: 176
1 0.528035 0.467226 0.64023
1 3.22826 -0.0818072 0.0315029
1 -0.0374805 3.17141 0.017091
1 -0.00381664 -0.0418339 3.32618
4
Atoms. Timestep: 177
1 0.528957 0.468388 0.639221
1 3.228 -0.0817281 0.032433
1 -0.0370622 3.17173 0.0183075
1 -0.00489666 -0.0433937 3.32504
4
Atoms. Timestep: 178
1 0.52991 0.469593 0.638313
1 3.22771 -0.0816108 0.0333885
1 -0.0366322 3.17215 0.0195165
1 -0.00599082 -0.0451292 3.32378
4
Atoms. Timestep: 179
1 0.530765 0.470733 0.637385
1 3.22755 -0.0814665 0.0343349
1 -0.0362025 3.17273 0.0207119
1 -0.00711041 -0.0469921 3.32257
4
Atoms. Timestep: 180
1 0.531446 0.471738 0.636362
1 3.22759 -0.0813039 0.0352459
1 -0.0357812 3.17348 0.0218903
1 -0.0082523 -0.0489195 3.3215
4
Atoms. Timestep: 181
1 0.531913 0.47258 0.635195
1 3.22787 -0.081124 0.0361082
1 -0.0353684 3.17442 0.0230616
1 -0.00941677 -0.0508714 3.32064
4
Atoms. Timestep: 182
1 0.532153 0.473256 0.633858
1 3.22841 -0.0809194 0.0369178
1 -0.0349568 3.17548 0.0242488
1 -0.0106057 -0.0528177 3.31998
4
Atoms. Timestep: 183
1 0.532184 0.473805 0.632343
1 3.22917 -0.0806701 0.0376798
1 -0.0345272 3.17659 0.0254993
1 -0.0118234 -0.0547303 3.31948
4
Atoms. Timestep: 184
1 0.532104 0.474345 0.630718
1 3.23001 -0.0803456 0.0384115
1 -0.0340497 3.17757 0.0268776
1 -0.0130619 -0.0565669 3.31899
4
Atoms. Timestep: 185
1 0.532053 0.474967 0.629135
1 3.23076 -0.0799641 0.039121
1 -0.0335355 3.17828 0.0283422
1 -0.0142743 -0.0582877 3.3184
4
Atoms. Timestep: 186
1 0.532112 0.475721 0.62768
1 3.23132 -0.0795423 0.0398131
1 -0.0329962 3.1787 0.0298627
1 -0.0154369 -0.0598819 3.31764
4
Atoms. Timestep: 187
1 0.532337 0.47664 0.626398
1 3.23165 -0.0790944 0.0404907
1 -0.0324418 3.17881 0.0314215
1 -0.01654 -0.0613527 3.31669
4
Atoms. Timestep: 188
1 0.532759 0.477737 0.625305
1 3.23171 -0.0786385 0.0411528
1 -0.0318862 3.17862 0.0330032
1 -0.0175837 -0.0627149 3.31554
4
Atoms. Timestep: 189
1 0.533392 0.479004 0.624379
1 3.23154 -0.0782032 0.0417924
1 -0.0313532 3.1782 0.0345928
1 -0.0185796 -0.0639997 3.31424
4
Atoms. Timestep: 190
1 0.534224 0.480389 0.623502
1 3.23125 -0.0778605 0.042384
1 -0.0309037 3.17776 0.0361697
1 -0.0195709 -0.06529 3.31294
4
Atoms. Timestep: 191
1 0.534224 0.480389 0.623502
1 3.23125 -0.0778605 0.042384
1 -0.0309037 3.17776 0.0361697
1 -0.0195709 -0.06529 3.31294
4
Atoms. Timestep: 192
1 0.534222 0.48038 0.623479
1 3.23127 -0.0778725 0.0423798
1 -0.030914 3.1778 0.0361685
1 -0.0195787 -0.0653041 3.31297
4
Atoms. Timestep: 193
1 0.534217 0.480363 0.623434
1 3.23131 -0.0778965 0.0423714
1 -0.0309345 3.17787 0.0361662
1 -0.0195943 -0.0653324 3.31303
4
Atoms. Timestep: 194
1 0.534211 0.480337 0.623367
1 3.23137 -0.0779324 0.042359
1 -0.0309651 3.17797 0.0361632
1 -0.0196175 -0.0653747 3.31311
4
Atoms. Timestep: 195
1 0.534204 0.480305 0.623279
1 3.23145 -0.0779797 0.0423432
1 -0.0310054 3.17811 0.0361601
1 -0.0196481 -0.065431 3.31322
4
Atoms. Timestep: 196
1 0.534201 0.48027 0.623172
1 3.23154 -0.0780381 0.0423248
1 -0.0310548 3.17827 0.0361584
1 -0.0196857 -0.0655012 3.31335
4
Atoms. Timestep: 197
1 0.534206 0.480231 0.623036
1 3.23165 -0.0781139 0.0423031
1 -0.0311185 3.17848 0.0361605
1 -0.0197344 -0.0655939 3.3135
4
Atoms. Timestep: 198
1 0.53423 0.480199 0.622868
1 3.23176 -0.0782101 0.0422801
1 -0.0311983 3.17873 0.0361721
1 -0.0197961 -0.0657152 3.31368
4
Atoms. Timestep: 199
1 0.53429 0.48019 0.622676
1 3.23187 -0.0783254 0.0422611
1 -0.031292 3.179 0.0362031
1 -0.01987 -0.0658676 3.31386
4
Atoms. Timestep: 200
1 0.53429 0.48019 0.622676
1 3.23187 -0.0783254 0.0422611
1 -0.031292 3.179 0.0362031
1 -0.01987 -0.0658676 3.31386
4
Atoms. Timestep: 201
1 0.534296 0.480195 0.622676
1 3.23187 -0.0783261 0.0422625
1 -0.0312922 3.179 0.0362063
1 -0.0198706 -0.0658699 3.31386
4
Atoms. Timestep: 202
1 0.534307 0.480204 0.622675
1 3.23186 -0.0783276 0.0422651
1 -0.0312928 3.179 0.0362127
1 -0.0198718 -0.0658745 3.31385
4
Atoms. Timestep: 203
1 0.534323 0.480218 0.622674
1 3.23184 -0.0783298 0.0422691
1 -0.0312936 3.17899 0.0362223
1 -0.0198737 -0.0658815 3.31383
4
Atoms. Timestep: 204
1 0.534345 0.480236 0.622673
1 3.23183 -0.0783328 0.0422743
1 -0.0312947 3.17899 0.0362351
1 -0.0198762 -0.0658909 3.31382
4
Atoms. Timestep: 205
1 0.534371 0.480258 0.62267
1 3.2318 -0.0783365 0.0422809
1 -0.031296 3.17898 0.0362512
1 -0.0198795 -0.0659028 3.3138
4
Atoms. Timestep: 206
1 0.534406 0.480288 0.622666
1 3.23178 -0.0783415 0.0422895
1 -0.0312979 3.17897 0.0362726
1 -0.019884 -0.0659187 3.31377
4
Atoms. Timestep: 207
1 0.53445 0.480325 0.62266
1 3.23174 -0.0783482 0.0423006
1 -0.0313004 3.17896 0.0363006
1 -0.0198903 -0.0659399 3.31374
4
Atoms. Timestep: 208
1 0.534505 0.480371 0.62265
1 3.2317 -0.0783568 0.0423149
1 -0.0313038 3.17895 0.036337
1 -0.019899 -0.0659681 3.3137
4
Atoms. Timestep: 209
1 0.534572 0.480428 0.622633
1 3.23165 -0.0783681 0.0423328
1 -0.0313082 3.17895 0.036384
1 -0.0199112 -0.0660053 3.31365
4