4
Atoms. Timestep: 0
1 0.1 0.1 0.1
1 3.415 0.1 0.1
1 0.1 3.215 0.1
1 0.1 0.1 3.715
4
Atoms. Timestep: 1
1 0.0381209 0.0742648 0.0434727
1 3.50421 0.0952772 0.0773049
1 0.0885128 3.25142 0.0792224
1 0.0841522 0.0940335 3.815
4
Atoms. Timestep: 2
1 -0.0236941 0.0409377 0.0561393
1 3.60421 0.0879935 0.0491535
1 0.0721111 3.30049 0.0546774
1 0.062369 0.0855754 3.85503
4
Atoms. Timestep: 3
1 -0.063675 -0.0141591 0.104685
1 3.70421 0.0749219 0.0125196
1 0.0450441 3.3841 0.0230143
1 0.0294168 0.0701403 3.87478
4
Atoms. Timestep: 4
1 -0.0402816 -0.0777417 0.136991
1 3.74854 0.0589482 -0.0269622
1 0.015184 3.4841 -0.00572624
1 -0.00844437 0.0496966 3.9107
4
Atoms. Timestep: 5
1 0.00722173 -0.128791 0.175774
1 3.77565 0.0372803 -0.0727322
1 -0.015359 3.5841 -0.0351422
1 -0.0525154 0.0224136 3.9471
4
Atoms. Timestep: 6
1 0.0598161 -0.127861 0.247606
1 3.85539 -0.00880644 -0.152364
1 -0.0665792 3.6841 -0.0933159
1 -0.133627 -0.032429 4.01307
4
Atoms. Timestep: 7
1 0.141789 -0.0553961 0.347606
1 3.9397 -0.0699265 -0.249476
1 -0.13533 3.74518 -0.175865
1 -0.231157 -0.104858 4.09274
4
Atoms. Timestep: 8
1 0.18877 -0.0211396 0.40211
1 4.01402 -0.133499 -0.306001
1 -0.199872 3.84518 -0.244476
1 -0.287922 -0.175542 4.16337
4
Atoms. Timestep: 9
1 0.271526 0.0562242 0.50211
1 4.01153 -0.223437 -0.299837
1 -0.295073 3.94084 -0.331882
1 -0.272985 -0.258629 4.14461
4
Atoms. Timestep: 10
1 0.266563 0.0610756 0.497104
1 4.03422 5.7501 5.7088
1 5.67796 3.97372 5.65578
1 5.73626 5.7301 4.15331
4
Atoms. Timestep: 11
1 0.243726 0.0656055 0.466798
1 4.0531 5.72756 5.73689
1 5.65018 3.96556 5.67023
1 5.768 5.75627 4.14108
4
Atoms. Timestep: 12
1 0.26397 0.0892428 0.463414
1 4.04066 5.71099 5.73651
1 5.6312 3.95831 5.659
1 5.77918 5.75646 4.15608
4
Atoms. Timestep: 13
1 0.265063 0.0918246 0.458315
1 4.0414 5.70579 5.73743
1 5.62577 3.95994 5.65758
1 5.78277 5.75744 4.16167
4
Atoms. Timestep: 14
1 0.260236 0.0877135 0.453734
1 4.04475 5.7052 5.73945
1 5.62547 3.96227 5.66035
1 5.78454 5.75982 4.16147
4
Atoms. Timestep: 15
1 0.258541 0.0862344 0.452197
1 4.04384 5.70526 5.74175
1 5.62542 3.9603 5.66319
1 5.7872 5.76321 4.15786
4
Atoms. Timestep: 16
1 0.257747 0.0854753 0.451153
1 4.04452 5.70482 5.74207
1 5.62506 3.9608 5.66375
1 5.78767 5.76391 4.15803
4
Atoms. Timestep: 17
1 0.258015 0.0855818 0.451023
1 4.04475 5.7044 5.74171
1 5.62468 3.96117 5.66346
1 5.78755 5.76385 4.1588
4
Atoms. Timestep: 18
1 0.258598 0.0859006 0.451179
1 4.04441 5.70401 5.74147
1 5.62429 3.96096 5.66324
1 5.7877 5.76412 4.15911
4
Atoms. Timestep: 19
1 0.258661 0.0856392 0.450955
1 4.0443 5.70355 5.74142
1 5.62385 3.96093 5.66316
1 5.7882 5.76488 4.15947
4
Atoms. Timestep: 20
1 0.258543 0.085347 0.45125
1 4.04418 5.70354 5.74142
1 5.62379 3.96073 5.66291
1 5.78849 5.76538 4.15942
4
Atoms. Timestep: 21
1 0.256711 0.0819161 0.454134
1 4.04447 5.7035 5.74087
1 5.6234 3.96041 5.65953
1 5.79042 5.76918 4.16047
4
Atoms. Timestep: 22
1 0.247157 0.057876 0.481558
1 4.04348 5.70299 5.73355
1 5.6199 3.95654 5.62845
1 5.80446 5.7976 4.17144
4
Atoms. Timestep: 23
1 0.221904 -0.00846512 0.5507
1 4.04196 5.69883 5.71144
1 5.60842 3.95139 5.54314
1 5.84273 5.87325 4.20972
4
Atoms. Timestep: 24
1 0.220726 -0.0103141 0.546619
1 4.04057 5.69879 5.71231
1 5.60879 3.9519 5.54407
1 5.84491 5.87462 4.212
4
Atoms. Timestep: 25
1 0.221349 -0.0102141 0.546089
1 4.03892 5.69856 5.71246
1 5.60854 3.95077 5.54425
1 5.84619 5.87588 4.2122
4
Atoms. Timestep: 26
1 0.221898 -0.0103667 0.544957
1 4.03834 5.69717 5.7119
1 5.60718 3.95065 5.54404
1 5.84758 5.87755 4.2141
4
Atoms. Timestep: 27
1 0.221886 -0.0105138 0.54604
1 4.03902 5.69656 5.71132
1 5.60647 3.95091 5.54335
1 5.84762 5.87805 4.21428
4
Atoms. Timestep: 28
1 0.221544 -0.0112876 0.547637
1 4.03878 5.69653 5.71085
1 5.60629 3.95053 5.54219
1 5.84838 5.87923 4.21432
4
Atoms. Timestep: 29
1 0.210944 -0.0284184 0.564588
1 4.03831 5.69723 5.70369
1 5.60564 3.95055 5.52383
1 5.8601 5.89564 4.22289
4
Atoms. Timestep: 30
1 0.208736 -0.032595 0.567651
1 4.03821 5.69688 5.70064
1 5.60497 3.95096 5.51833
1 5.86308 5.89976 4.22839
4
Atoms. Timestep: 31
1 0.206257 -0.0386014 0.573673
1 4.03621 5.6962 5.69574
1 5.60361 3.94974 5.50954
1 5.86893 5.90766 4.23604
4
Atoms. Timestep: 32
1 0.205179 -0.040889 0.576554
1 4.03526 5.69563 5.6946
1 5.60285 3.94891 5.50712
1 5.87171 5.91135 4.23673
4
Atoms. Timestep: 33
1 0.203262 -0.0432201 0.578023
1 4.03622 5.6947 5.6942
1 5.60202 3.94983 5.50617
1 5.8735 5.91369 4.23661
4
Atoms. Timestep: 34
1 0.201228 -0.0449871 0.581156
1 4.03662 5.69529 5.69273
1 5.60274 3.9503 5.50382
1 5.87441 5.9144 4.23729
4
Atoms. Timestep: 35
1 0.200252 -0.0458301 0.58254
1 4.03611 5.69569 5.69191
1 5.60322 3.94989 5.50268
1 5.87542 5.91525 4.23787
4
Atoms. Timestep: 36
1 0.200069 -0.0459797 0.582151
1 4.03628 5.69545 5.69177
1 5.60304 3.95012 5.50276
1 5.87561 5.91541 4.23832
4
Atoms. Timestep: 37
1 0.200074 -0.0459873 0.581819
1 4.03576 5.69482 5.69131
1 5.60255 3.94977 5.50293
1 5.87661 5.9164 4.23894
4
Atoms. Timestep: 38
1 0.199828 -0.0460118 0.582591
1 4.0357 5.69419 5.69023
1 5.60216 3.94994 5.50244
1 5.87731 5.91688 4.23974
4
Atoms. Timestep: 39
1 0.197017 -0.0472162 0.586252
1 4.0347 5.69336 5.68673
1 5.60236 3.94962 5.50059
1 5.88093 5.91924 4.24142
4
Atoms. Timestep: 40
1 0.14383 -0.0722671 0.63692
1 4.02668 5.68154 5.63175
1 5.60794 3.95203 5.47186
1 5.93655 5.9537 4.27446
4
Atoms. Timestep: 41
1 0.113191 -0.0867051 0.66288
1 4.02345 5.67586 5.60043
1 5.61198 3.95395 5.45596
1 5.96637 5.9719 4.29573
4
Atoms. Timestep: 42
1 0.112129 -0.0870617 0.66085
1 4.02436 5.67709 5.59968
1 5.61322 3.95372 5.4561
1 5.9653 5.97125 4.29837
4
Atoms. Timestep: 43
1 0.111932 -0.0867532 0.660652
1 4.02338 5.67846 5.59889
1 5.61459 3.95185 5.45638
1 5.9651 5.97144 4.29907
4
Atoms. Timestep: 44
1 0.111273 -0.0868782 0.660433
1 4.02353 5.67883 5.59801
1 5.61529 3.95179 5.45691
1 5.96491 5.97126 4.29965
4
Atoms. Timestep: 45
1 0.108418 -0.0867038 0.662836
1 4.02346 5.67796 5.59361
1 5.61691 3.95295 5.45994
1 5.96621 5.9708 4.29861
4
Atoms. Timestep: 46
1 0.0956229 -0.0794088 0.668066
1 4.02145 5.67467 5.57849
1 5.62289 3.95249 5.46739
1 5.97503 5.96725 4.30105
4
Atoms. Timestep: 47
1 0.0850546 -0.0744001 0.669131
1 4.02165 5.67111 5.56862
1 5.62622 3.95414 5.47255
1 5.98207 5.96415 4.3047
4
Atoms. Timestep: 48
1 0.0854921 -0.073786 0.670001
1 4.02042 5.67105 5.56866
1 5.62622 3.95304 5.47258
1 5.98286 5.9647 4.30376
4
Atoms. Timestep: 49
1 0.0848848 -0.0728366 0.669829
1 4.02017 5.66956 5.56837
1 5.62546 3.95336 5.47287
1 5.98449 5.96492 4.30393
4
Atoms. Timestep: 50
1 0.0844432 -0.0725358 0.669595
1 4.02035 5.66933 5.56788
1 5.62556 3.9535 5.47297
1 5.98465 5.96471 4.30455
4
Atoms. Timestep: 51
1 0.0832479 -0.0712918 0.669904
1 4.01986 5.66913 5.56598
1 5.62651 3.95276 5.47349
1 5.98538 5.9644 4.30563
4
Atoms. Timestep: 52
1 0.0731341 -0.066808 0.673556
1 4.01809 5.66549 5.55501
1 5.63162 3.95299 5.47969
1 5.99216 5.96333 4.30675
4
Atoms. Timestep: 53
1 0.0605661 -0.0620738 0.676639
1 4.01844 5.66029 5.54229
1 5.63677 3.9559 5.48648
1 5.99922 5.96088 4.30959
4
Atoms. Timestep: 54
1 0.0530016 -0.0586937 0.679002
1 4.01809 5.65715 5.53433
1 5.64005 3.95703 5.49057
1 6.00386 5.95951 4.31109
4
Atoms. Timestep: 55
1 0.0478154 -0.0552329 0.681637
1 4.01654 5.65501 5.52826
1 5.64275 3.95634 5.4934
1 6.00789 5.95887 4.3117
4
Atoms. Timestep: 56
1 0.0479248 -0.0543337 0.681485
1 4.01605 5.65509 5.52822
1 5.64285 3.95531 5.49298
1 6.00817 5.95893 4.31232
4
Atoms. Timestep: 57
1 0.0477157 -0.0538819 0.680986
1 4.01618 5.65486 5.52823
1 5.64276 3.95521 5.49272
1 6.00834 5.95881 4.31306
4
Atoms. Timestep: 58
1 0.0474054 -0.0535548 0.680882
1 4.01603 5.65417 5.52827
1 5.64253 3.95544 5.49278
1 6.00903 5.95894 4.31307
4
Atoms. Timestep: 59
1 0.047067 -0.0530662 0.681118
1 4.01581 5.65375 5.52777
1 5.64277 3.9553 5.49289
1 6.00935 5.95902 4.31322
4
Atoms. Timestep: 60
1 0.0469202 -0.0531347 0.681016
1 4.01596 5.65372 5.52769
1 5.64284 3.95544 5.49295
1 6.00928 5.95897 4.31335
4
Atoms. Timestep: 61
1 0.0458801 -0.0531139 0.681339
1 4.01584 5.65368 5.5267
1 5.64396 3.95539 5.4936
1 6.00932 5.95904 4.31337
4
Atoms. Timestep: 62
1 0.0427721 -0.0517175 0.683071
1 4.01567 5.65156 5.52332
1 5.64627 3.9563 5.49492
1 6.01029 5.95885 4.31369
4
Atoms. Timestep: 63
1 0.0324962 -0.0461397 0.68612
1 4.01382 5.6447 5.51424
1 5.65319 3.95689 5.49892
1 6.01549 5.95955 4.31573
4
Atoms. Timestep: 64
1 0.0103472 -0.0350252 0.69006
1 4.01167 5.63004 5.49549
1 5.66724 3.9595 5.50719
1 6.02575 5.96048 4.32225
4
Atoms. Timestep: 65
1 0.0106721 -0.034873 0.690402
1 4.01133 5.63007 5.49532
1 5.66727 3.95915 5.50723
1 6.02572 5.96066 4.32206
4
Atoms. Timestep: 66
1 0.0111036 -0.0349271 0.69049
1 4.0114 5.62994 5.49492
1 5.6672 3.9592 5.50737
1 6.02529 5.96079 4.32222
4
Atoms. Timestep: 67
1 0.0111723 -0.0350864 0.690342
1 4.01141 5.62989 5.49495
1 5.66721 3.95922 5.50753
1 6.0252 5.96097 4.32218
4
Atoms. Timestep: 68
1 0.0112267 -0.0350951 0.690338
1 4.01136 5.62988 5.49498
1 5.66724 3.95919 5.50755
1 6.02517 5.96103 4.32213
4
Atoms. Timestep: 69
1 0.011771 -0.0350799 0.690145
1 4.01129 5.62959 5.49556
1 5.66749 3.95922 5.50729
1 6.02446 5.96127 4.32201
4
Atoms. Timestep: 70
1 0.0118622 -0.0351354 0.689975
1 4.01136 5.62945 5.49598
1 5.6676 3.95932 5.50716
1 6.02418 5.96137 4.32188
4
Atoms. Timestep: 71
1 0.0121201 -0.0351721 0.689751
1 4.01136 5.62918 5.49684
1 5.66787 3.95939 5.50688
1 6.02365 5.9616 4.32153
4
Atoms. Timestep: 72
1 0.0122398 -0.0350997 0.689842
1 4.01125 5.62921 5.49679
1 5.66791 3.95929 5.50683
1 6.0236 5.9616 4.32154
4
Atoms. Timestep: 73
1 0.0123219 -0.0350843 0.689832
1 4.01125 5.6292 5.49675
1 5.66794 3.95932 5.50679
1 6.02349 5.96157 4.32162
4
Atoms. Timestep: 74
1 0.012612 -0.0351961 0.689665
1 4.01121 5.62903 5.49699
1 5.66808 3.95934 5.50681
1 6.0231 5.96183 4.32153
4
Atoms. Timestep: 75
1 0.012964 -0.0351417 0.689625
1 4.01113 5.6288 5.49748
1 5.66828 3.95931 5.50659
1 6.02263 5.96203 4.3213
4
Atoms. Timestep: 76
1 0.014686 -0.0349695 0.689022
1 4.01102 5.62745 5.50037
1 5.66942 3.95958 5.50524
1 6.01987 5.96294 4.32037
4
Atoms. Timestep: 77
1 0.0153241 -0.0350616 0.688458
1 4.01102 5.62692 5.50169
1 5.67 3.9598 5.50473
1 6.01865 5.96335 4.32012
4
Atoms. Timestep: 78
1 0.0159017 -0.0351686 0.687971
1 4.01077 5.62658 5.5028
1 5.67061 3.95977 5.50441
1 6.01772 5.96382 4.31982
4
Atoms. Timestep: 79
1 0.0159713 -0.0351509 0.688024
1 4.01074 5.62656 5.50279
1 5.67062 3.95974 5.5044
1 6.01767 5.96385 4.31978
4
Atoms. Timestep: 80
1 0.0160309 -0.0351616 0.688049
1 4.01078 5.62651 5.50275
1 5.67061 3.95977 5.50442
1 6.01758 5.96388 4.31979
4
Atoms. Timestep: 81
1 0.016038 -0.0351914 0.688021
1 4.01077 5.6265 5.50275
1 5.67063 3.95977 5.50445
1 6.01755 5.96392 4.31978
4
Atoms. Timestep: 82
1 0.0160447 -0.0351911 0.688022
1 4.01076 5.62649 5.50275
1 5.67065 3.95977 5.50445
1 6.01755 5.96394 4.31978
4
Atoms. Timestep: 83
1 0.0160804 -0.0351514 0.688011
1 4.01073 5.62634 5.50283
1 5.67081 3.95978 5.50437
1 6.01738 5.96403 4.31979
4
Atoms. Timestep: 84
1 0.0160577 -0.0351635 0.688
1 4.01074 5.62632 5.50285
1 5.67081 3.9598 5.50438
1 6.01739 5.96404 4.31977
4
Atoms. Timestep: 85
1 0.0160543 -0.03516 0.688005
1 4.01073 5.62631 5.50287
1 5.67082 3.9598 5.50437
1 6.01739 5.96405 4.31976
4
Atoms. Timestep: 86
1 0.0160319 -0.0351151 0.68801
1 4.01072 5.62621 5.50296
1 5.67093 3.95982 5.50429
1 6.01732 5.96408 4.31974
4
Atoms. Timestep: 87
1 0.0160337 -0.0350765 0.687934
1 4.01064 5.62589 5.50316
1 5.67131 3.95986 5.50417
1 6.01702 5.96433 4.31974
4
Atoms. Timestep: 88
1 0.0160917 -0.0350157 0.687956
1 4.01058 5.62547 5.50332
1 5.67165 3.95993 5.50406
1 6.01668 5.96461 4.31966
4
Atoms. Timestep: 89
1 0.016115 -0.0349815 0.687939
1 4.01056 5.62517 5.50345
1 5.6719 3.96 5.50398
1 6.01642 5.96481 4.31963
4
Atoms. Timestep: 90
1 0.0160906 -0.0349583 0.687868
1 4.01053 5.62501 5.50357
1 5.67211 3.96003 5.5039
1 6.01627 5.96492 4.31966
4
Atoms. Timestep: 91
1 0.0160806 -0.0349268 0.687851
1 4.01048 5.62492 5.50365
1 5.67224 3.96002 5.50385
1 6.01621 5.96498 4.31965
4
Atoms. Timestep: 92
1 0.016071 -0.0348941 0.687878
1 4.01048 5.62485 5.50369
1 5.67229 3.96004 5.50381
1 6.01617 5.965 4.31962
4
Atoms. Timestep: 93
1 0.0160651 -0.0348917 0.687876
1 4.01049 5.62483 5.5037
1 5.6723 3.96005 5.5038
1 6.01615 5.96501 4.31962
4
Atoms. Timestep: 94
1 0.0160596 -0.0348967 0.687862
1 4.01048 5.62481 5.5037
1 5.67233 3.96005 5.50381
1 6.01613 5.96503 4.31963
4
Atoms. Timestep: 95
1 0.0160609 -0.0348929 0.687863
1 4.01047 5.6248 5.5037
1 5.67235 3.96005 5.50381
1 6.01612 5.96504 4.31962
4
Atoms. Timestep: 96
1 0.0160598 -0.0348903 0.687865
1 4.01047 5.62479 5.5037
1 5.67235 3.96006 5.5038
1 6.01612 5.96504 4.31963
4
Atoms. Timestep: 97
1 0.0160599 -0.0348837 0.687872
1 4.01047 5.62479 5.5037
1 5.67235 3.96006 5.5038
1 6.01612 5.96504 4.31962
4
Atoms. Timestep: 98
1 0.016035 -0.0348613 0.687869
1 4.01047 5.62474 5.50372
1 5.67239 3.96007 5.50379
1 6.01611 5.96506 4.31962
4
Atoms. Timestep: 99
1 0.0160232 -0.0348502 0.687862
1 4.01045 5.62469 5.50371
1 5.67246 3.96007 5.50379
1 6.01607 5.96509 4.31964
4
Atoms. Timestep: 100
1 0.016006 -0.0348314 0.687866
1 4.01043 5.62463 5.5037
1 5.67254 3.96008 5.5038
1 6.01603 5.96513 4.31964
4
Atoms. Timestep: 101
1 0.0159381 -0.0347802 0.687878
1 4.01042 5.62443 5.5037
1 5.67271 3.96012 5.50381
1 6.01593 5.96523 4.31962
4
Atoms. Timestep: 102
1 0.0157607 -0.0345923 0.687892
1 4.01034 5.62399 5.50376
1 5.67313 3.96019 5.50374
1 6.01577 5.96541 4.31961
4
Atoms. Timestep: 103
1 0.0157018 -0.034539 0.687878
1 4.01032 5.62385 5.50378
1 5.67327 3.96022 5.50372
1 6.01571 5.96546 4.31962
4
Atoms. Timestep: 104
1 0.0156812 -0.0345149 0.687871
1 4.0103 5.62379 5.50378
1 5.67335 3.96022 5.50372
1 6.01567 5.9655 4.31963
4
Atoms. Timestep: 105
1 0.0156744 -0.0345124 0.68787
1 4.01029 5.62376 5.50377
1 5.67338 3.96023 5.50373
1 6.01565 5.96553 4.31963
4
Atoms. Timestep: 106
1 0.015674 -0.0345103 0.687874
1 4.01029 5.62375 5.50377
1 5.67339 3.96023 5.50373
1 6.01564 5.96553 4.31963
4
Atoms. Timestep: 107
1 0.0156724 -0.0345089 0.687875
1 4.0103 5.62375 5.50377
1 5.67339 3.96023 5.50373
1 6.01564 5.96553 4.31963
4
Atoms. Timestep: 108
1 0.0156715 -0.034508 0.687874
1 4.01029 5.62375 5.50377
1 5.67339 3.96023 5.50373
1 6.01564 5.96553 4.31963
4
Atoms. Timestep: 109
1 0.0156703 -0.0345073 0.687873
1 4.01029 5.62375 5.50377
1 5.67339 3.96023 5.50373
1 6.01564 5.96553 4.31963
4
Atoms. Timestep: 110
1 0.0156676 -0.034504 0.687874
1 4.01029 5.62374 5.50377
1 5.67339 3.96023 5.50373
1 6.01564 5.96553 4.31963
4
Atoms. Timestep: 111
1 0.0156591 -0.0344954 0.687874
1 4.01029 5.62373 5.50377
1 5.67341 3.96024 5.50373
1 6.01564 5.96553 4.31963
4
Atoms. Timestep: 112
1 0.0156595 -0.034495 0.687873
1 4.01029 5.62373 5.50376
1 5.67341 3.96024 5.50373
1 6.01564 5.96553 4.31963
4
Atoms. Timestep: 113
1 0.015659 -0.0344943 0.687873
1 4.01029 5.62372 5.50376
1 5.67341 3.96024 5.50373
1 6.01564 5.96553 4.31963
4
Atoms. Timestep: 114
1 0.0156573 -0.0344933 0.687873
1 4.01029 5.62372 5.50376
1 5.67342 3.96024 5.50374
1 6.01564 5.96553 4.31963
4
Atoms. Timestep: 115
1 0.015642 -0.0344762 0.687874
1 4.01029 5.62369 5.50376
1 5.67344 3.96024 5.50374
1 6.01563 5.96554 4.31963
4
Atoms. Timestep: 116
1 0.0156323 -0.034466 0.687871
1 4.01028 5.62368 5.50376
1 5.67346 3.96025 5.50374
1 6.01562 5.96554 4.31963
4
Atoms. Timestep: 117
1 0.0156269 -0.0344598 0.687871
1 4.01028 5.62367 5.50376
1 5.67347 3.96025 5.50374
1 6.01562 5.96555 4.31963
4
Atoms. Timestep: 118
1 0.0156026 -0.0344352 0.687872
1 4.01027 5.62362 5.50375
1 5.67352 3.96025 5.50375
1 6.01561 5.96556 4.31963
4
Atoms. Timestep: 119
1 0.0155955 -0.0344281 0.687872
1 4.01027 5.62361 5.50375
1 5.67353 3.96026 5.50376
1 6.0156 5.96556 4.31963
4
Atoms. Timestep: 120
1 0.0155963 -0.0344276 0.687872
1 4.01027 5.62361 5.50375
1 5.67353 3.96026 5.50376
1 6.0156 5.96556 4.31963
4
Atoms. Timestep: 121
1 0.0155964 -0.0344276 0.687871
1 4.01027 5.62361 5.50375
1 5.67353 3.96026 5.50376
1 6.0156 5.96556 4.31963
4
Atoms. Timestep: 122
1 0.0155966 -0.0344278 0.687871
1 4.01027 5.62361 5.50375
1 5.67353 3.96026 5.50376
1 6.0156 5.96556 4.31963
4
Atoms. Timestep: 123
1 0.0155967 -0.0344275 0.687871
1 4.01027 5.62361 5.50375
1 5.67353 3.96026 5.50376
1 6.0156 5.96556 4.31963
4
Atoms. Timestep: 124
1 0.0155952 -0.0344263 0.687871
1 4.01027 5.6236 5.50375
1 5.67354 3.96026 5.50375
1 6.0156 5.96557 4.31963
4
Atoms. Timestep: 125
1 0.0155949 -0.0344264 0.687871
1 4.01027 5.6236 5.50375
1 5.67354 3.96026 5.50375
1 6.0156 5.96557 4.31963
4
Atoms. Timestep: 126
1 0.0155947 -0.0344264 0.687871
1 4.01027 5.6236 5.50375
1 5.67354 3.96026 5.50375
1 6.0156 5.96557 4.31963
4
Atoms. Timestep: 127
1 0.0155945 -0.0344263 0.687872
1 4.01027 5.6236 5.50375
1 5.67354 3.96026 5.50375
1 6.0156 5.96557 4.31963
4
Atoms. Timestep: 128
1 0.0155938 -0.0344258 0.687872
1 4.01027 5.6236 5.50375
1 5.67354 3.96026 5.50375
1 6.0156 5.96557 4.31963
4
Atoms. Timestep: 129
1 0.0155937 -0.0344255 0.687871
1 4.01027 5.6236 5.50375
1 5.67354 3.96026 5.50375
1 6.0156 5.96557 4.31963
4
Atoms. Timestep: 130
1 0.0155936 -0.034425 0.687871
1 4.01027 5.6236 5.50375
1 5.67354 3.96026 5.50375
1 6.0156 5.96557 4.31963
4
Atoms. Timestep: 131
1 0.0155929 -0.0344243 0.687871
1 4.01027 5.62359 5.50375
1 5.67354 3.96026 5.50375
1 6.0156 5.96557 4.31963
4
Atoms. Timestep: 132
1 0.0155927 -0.0344243 0.687871
1 4.01027 5.62359 5.50375
1 5.67354 3.96026 5.50375
1 6.0156 5.96557 4.31963
4
Atoms. Timestep: 133
1 0.0155924 -0.0344245 0.687872
1 4.01027 5.62359 5.50375
1 5.67354 3.96026 5.50375
1 6.01559 5.96557 4.31963
4
Atoms. Timestep: 134
1 0.0155923 -0.0344245 0.687872
1 4.01027 5.62359 5.50375
1 5.67354 3.96026 5.50375
1 6.01559 5.96557 4.31963
4
Atoms. Timestep: 135
1 0.0155919 -0.0344241 0.687872
1 4.01027 5.62359 5.50375
1 5.67355 3.96026 5.50375
1 6.01559 5.96557 4.31963
4
Atoms. Timestep: 136
1 0.0155918 -0.034424 0.687872
1 4.01027 5.62359 5.50375
1 5.67355 3.96026 5.50375
1 6.01559 5.96557 4.31963
4
Atoms. Timestep: 137
1 0.0155914 -0.0344233 0.687871
1 4.01027 5.62359 5.50375
1 5.67355 3.96026 5.50375
1 6.01559 5.96557 4.31963
4
Atoms. Timestep: 138
1 0.0155909 -0.0344228 0.687871
1 4.01027 5.62359 5.50375
1 5.67355 3.96026 5.50375
1 6.01559 5.96557 4.31963
4
Atoms. Timestep: 139
1 0.0155892 -0.0344211 0.687872
1 4.01027 5.62358 5.50375
1 5.67355 3.96026 5.50375
1 6.01559 5.96558 4.31963
4
Atoms. Timestep: 140
1 0.0155856 -0.0344185 0.687872
1 4.01026 5.62357 5.50375
1 5.67357 3.96026 5.50375
1 6.01558 5.96558 4.31963
4
Atoms. Timestep: 141
1 0.0155853 -0.0344184 0.687872
1 4.01026 5.62357 5.50375
1 5.67357 3.96026 5.50375
1 6.01558 5.96558 4.31963
4
Atoms. Timestep: 142
1 0.0155852 -0.0344181 0.687872
1 4.01026 5.62357 5.50375
1 5.67357 3.96026 5.50375
1 6.01558 5.96558 4.31963
4
Atoms. Timestep: 143
1 0.0155852 -0.0344181 0.687872
1 4.01026 5.62357 5.50375
1 5.67357 3.96026 5.50375
1 6.01558 5.96558 4.31963
