LAMMPS (16 Mar 2018)
units       metal

dimension    3
boundary     s s s

#two CAC element styles currently available
#one has charge and the other does not
#the first number specified is the maximum number
#of nodes an element can have in your input model
#the second is the maximum number of internal
#degrees of freedom an element can have in the model
atom_style     CAC 8 4
comm_style	CAC
#region	    box block 0 6 0 6 0 6 units box
#create_box  1 box

newton off
#read_data Cu_mixed.cac
read_data Cu_CAC_small.txt
  orthogonal box = (-18.075 -18.075 -18.075) to (56.0325 56.0325 56.0325)
  1 by 1 by 1 MPI processor grid
  2 CAC_Elements
#read_data test.txt
 #create_atoms 1 single 0.1 0.1 0.1
 #create_atoms 1 single 0.2 0 0

thermo_style custom step pe
thermo 1

pair_style CAC/eam
pair_coeff * * Cu_u3.eam
Reading potential file Cu_u3.eam with DATE: 2007-06-11
dump          2 all CAC/xyz 50 cac.xyz

min_style	CAC_fire
minimize	1e-14 0.0 1000 10000
WARNING: Using 'neigh_modify every 1 delay 0 check yes' setting during minimization (../min.cpp:168)
Neighbor list info ...
  update every 1 steps, delay 0 steps, check yes
  max neighbors/atom: 1, page size: 10
  master list distance cutoff = 11.9
  ghost atom cutoff = 11.9
  binsize = 5.95, bins = 1 1 7
  1 neighbor lists, perpetual/occasional/extra = 1 0 0
  (1) pair CAC/eam, perpetual
      attributes: , newton off
      pair build: CAC
      stencil: CAC
      bin: CAC
WARNING: Proc sub-domain size < neighbor skin, could lead to lost atoms (../domain.cpp:937)
Per MPI rank memory allocation (min/avg/max) = 90.15 | 90.15 | 90.15 Mbytes
Step PotEng 
       0   -218.06846 
       1   -218.06846 
       2   -218.06847 
       3   -218.06848 
       4    -218.0685 
       5   -218.06852 
       6   -218.06855 
       7    -218.0686 
       8   -218.06865 
       9   -218.06872 
      10    -218.0688 
      11   -218.06891 
      12   -218.06904 
      13   -218.06921 
      14   -218.06941 
      15   -218.06966 
      16   -218.06996 
      17   -218.07032 
      18   -218.07075 
      19   -218.07126 
      20   -218.07184 
      21    -218.0725 
      22   -218.07324 
      23   -218.07405 
      24   -218.07491 
      25   -218.07578 
      26   -218.07664 
      27   -218.07746 
      28   -218.07821 
      29   -218.07893 
      30   -218.07969 
      31   -218.08064 
      32   -218.08193 
      33   -218.08365 
      34   -218.08577 
      35   -218.08806 
      36   -218.09025 
      37   -218.09236 
      38   -218.09488 
      39   -218.09845 
      40   -218.10287 
      41   -218.10676 
      42   -218.10877 
      43   -218.10968 
      44   -218.11151 
      45   -218.11534 
      46   -218.12012 
      47   -218.12314 
      48   -218.12312 
      49   -218.12226 
      50   -218.12358 
      51   -218.12786 
      52   -218.13225 
      53   -218.13227 
      54   -218.13227 
      55   -218.13251 
      56   -218.13296 
      57   -218.13355 
      58   -218.13416 
      59   -218.13469 
      60   -218.13507 
      61   -218.13521 
      62   -218.13514 
      63   -218.13507 
      64   -218.13507 
      65   -218.13512 
      66   -218.13522 
      67   -218.13535 
      68    -218.1355 
      69   -218.13566 
      70   -218.13581 
      71   -218.13594 
      72   -218.13602 
      73   -218.13602 
      74   -218.13596 
      75    -218.1359 
      76   -218.13591 
      77   -218.13606 
      78   -218.13638 
      79   -218.13675 
      80   -218.13692 
      81   -218.13682 
      82   -218.13672 
      83   -218.13693 
      84   -218.13748 
      85   -218.13803 
      86   -218.13805 
      87    -218.1376 
      88    -218.1376 
      89    -218.1377 
      90   -218.13788 
      91    -218.1381 
      92   -218.13832 
      93   -218.13848 
      94   -218.13855 
      95   -218.13848 
      96   -218.13848 
      97   -218.13849 
      98    -218.1385 
      99   -218.13852 
     100   -218.13853 
     101   -218.13856 
     102   -218.13858 
     103   -218.13861 
     104   -218.13863 
     105   -218.13866 
     106   -218.13868 
     107   -218.13869 
     108   -218.13871 
     109   -218.13873 
     110   -218.13878 
     111   -218.13885 
     112   -218.13895 
     113   -218.13904 
     114   -218.13911 
     115   -218.13918 
     116   -218.13928 
     117   -218.13943 
     118   -218.13958 
     119   -218.13966 
     120    -218.1397 
     121    -218.1398 
     122   -218.13998 
     123   -218.14016 
     124   -218.14022 
     125    -218.1402 
     126   -218.14024 
     127   -218.14041 
     128   -218.14065 
     129   -218.14074 
     130   -218.14062 
     131   -218.14062 
     132   -218.14065 
     133    -218.1407 
     134   -218.14076 
     135   -218.14082 
     136   -218.14086 
     137   -218.14088 
     138   -218.14086 
     139   -218.14086 
     140   -218.14086 
     141   -218.14086 
     142   -218.14087 
     143   -218.14087 
     144   -218.14088 
     145   -218.14089 
     146   -218.14089 
     147    -218.1409 
     148   -218.14091 
     149   -218.14091 
     150   -218.14092 
     151   -218.14092 
     152   -218.14093 
     153   -218.14094 
     154   -218.14096 
     155   -218.14099 
     156   -218.14101 
     157   -218.14104 
     158   -218.14105 
     159   -218.14108 
     160   -218.14112 
     161   -218.14117 
     162   -218.14121 
     163   -218.14122 
     164   -218.14125 
     165   -218.14129 
     166   -218.14136 
     167   -218.14142 
     168   -218.14143 
     169   -218.14144 
     170   -218.14147 
     171   -218.14155 
     172   -218.14164 
     173   -218.14168 
     174   -218.14165 
     175   -218.14165 
     176   -218.14166 
     177   -218.14168 
     178    -218.1417 
     179   -218.14173 
     180   -218.14174 
     181   -218.14175 
     182   -218.14175 
     183   -218.14175 
     184   -218.14175 
     185   -218.14175 
     186   -218.14175 
     187   -218.14176 
     188   -218.14176 
     189   -218.14176 
     190   -218.14177 
     191   -218.14177 
     192   -218.14177 
     193   -218.14178 
     194   -218.14178 
     195   -218.14179 
     196   -218.14179 
     197    -218.1418 
     198   -218.14182 
     199   -218.14183 
     200   -218.14185 
     201   -218.14187 
     202   -218.14189 
     203   -218.14192 
     204   -218.14195 
     205   -218.14198 
     206   -218.14201 
     207   -218.14203 
     208   -218.14207 
     209   -218.14211 
     210   -218.14215 
     211   -218.14219 
     212   -218.14221 
     213   -218.14225 
     214    -218.1423 
     215   -218.14236 
     216    -218.1424 
     217   -218.14242 
     218   -218.14245 
     219    -218.1425 
     220   -218.14258 
     221   -218.14263 
     222   -218.14264 
     223   -218.14264 
     224   -218.14268 
     225   -218.14277 
     226   -218.14287 
     227   -218.14289 
     228   -218.14289 
     229   -218.14289 
     230    -218.1429 
     231   -218.14291 
     232   -218.14292 
     233   -218.14292 
     234   -218.14293 
     235   -218.14293 
     236   -218.14293 
     237   -218.14293 
     238   -218.14294 
     239   -218.14296 
     240   -218.14298 
     241     -218.143 
     242   -218.14301 
     243   -218.14302 
     244   -218.14303 
     245   -218.14306 
     246    -218.1431 
     247   -218.14313 
     248   -218.14313 
     249   -218.14313 
     250   -218.14316 
     251   -218.14321 
     252   -218.14327 
     253   -218.14328 
     254   -218.14326 
     255   -218.14326 
     256   -218.14327 
     257   -218.14329 
     258    -218.1433 
     259   -218.14332 
     260   -218.14334 
     261   -218.14334 
     262   -218.14334 
     263   -218.14334 
     264   -218.14334 
     265   -218.14334 
     266   -218.14334 
     267   -218.14335 
     268   -218.14335 
     269   -218.14335 
     270   -218.14335 
     271   -218.14336 
     272   -218.14336 
     273   -218.14336 
     274   -218.14337 
     275   -218.14337 
     276   -218.14338 
     277   -218.14339 
     278    -218.1434 
     279   -218.14341 
     280   -218.14343 
     281   -218.14344 
     282   -218.14346 
     283   -218.14348 
     284    -218.1435 
     285   -218.14353 
     286   -218.14355 
     287   -218.14357 
     288    -218.1436 
     289   -218.14364 
     290   -218.14367 
     291    -218.1437 
     292   -218.14372 
     293   -218.14375 
     294   -218.14379 
     295   -218.14384 
     296   -218.14387 
     297   -218.14389 
     298   -218.14391 
     299   -218.14396 
     300   -218.14402 
     301   -218.14406 
     302   -218.14406 
     303   -218.14407 
     304   -218.14411 
     305   -218.14418 
     306   -218.14426 
     307   -218.14427 
     308   -218.14427 
     309   -218.14428 
     310   -218.14428 
     311   -218.14429 
     312    -218.1443 
     313   -218.14431 
     314   -218.14431 
     315   -218.14431 
     316   -218.14431 
     317   -218.14431 
     318   -218.14432 
     319   -218.14433 
     320   -218.14435 
     321   -218.14437 
     322   -218.14438 
     323   -218.14438 
     324   -218.14438 
     325   -218.14441 
     326   -218.14445 
     327   -218.14448 
     328   -218.14448 
     329   -218.14446 
     330   -218.14447 
     331   -218.14452 
     332   -218.14458 
     333   -218.14461 
     334   -218.14459 
     335   -218.14459 
     336   -218.14459 
     337    -218.1446 
     338   -218.14462 
     339   -218.14463 
     340   -218.14464 
     341   -218.14465 
     342   -218.14465 
     343   -218.14465 
     344   -218.14465 
     345   -218.14465 
     346   -218.14465 
     347   -218.14465 
     348   -218.14465 
     349   -218.14465 
     350   -218.14466 
     351   -218.14466 
     352   -218.14466 
     353   -218.14466 
     354   -218.14467 
     355   -218.14467 
     356   -218.14468 
     357   -218.14468 
     358   -218.14469 
     359    -218.1447 
     360   -218.14472 
     361   -218.14473 
     362   -218.14474 
     363   -218.14476 
     364   -218.14478 
     365    -218.1448 
     366   -218.14482 
     367   -218.14484 
     368   -218.14486 
     369   -218.14489 
     370   -218.14492 
     371   -218.14494 
     372   -218.14496 
     373   -218.14499 
     374   -218.14502 
     375   -218.14506 
     376   -218.14508 
     377    -218.1451 
     378   -218.14512 
     379   -218.14516 
     380   -218.14521 
     381   -218.14524 
     382   -218.14524 
     383   -218.14525 
     384   -218.14529 
     385   -218.14535 
     386   -218.14541 
     387   -218.14541 
     388   -218.14541 
     389   -218.14542 
     390   -218.14542 
     391   -218.14543 
     392   -218.14544 
     393   -218.14545 
     394   -218.14545 
     395   -218.14545 
     396   -218.14545 
     397   -218.14545 
     398   -218.14545 
     399   -218.14546 
     400   -218.14548 
     401    -218.1455 
     402    -218.1455 
     403    -218.1455 
     404    -218.1455 
     405   -218.14553 
     406   -218.14556 
     407   -218.14559 
     408   -218.14558 
     409   -218.14558 
     410   -218.14559 
     411   -218.14559 
     412    -218.1456 
     413    -218.1456 
     414   -218.14561 
     415   -218.14561 
     416   -218.14561 
     417   -218.14561 
     418   -218.14561 
     419   -218.14562 
     420   -218.14563 
     421   -218.14565 
     422   -218.14566 
     423   -218.14567 
     424   -218.14567 
     425   -218.14568 
     426    -218.1457 
     427   -218.14573 
     428   -218.14574 
     429   -218.14574 
     430   -218.14574 
     431   -218.14576 
     432   -218.14579 
     433   -218.14583 
     434   -218.14585 
     435   -218.14583 
     436   -218.14583 
     437   -218.14583 
     438   -218.14584 
     439   -218.14586 
     440   -218.14587 
     441   -218.14588 
     442   -218.14588 
     443   -218.14588 
     444   -218.14588 
     445   -218.14588 
     446   -218.14588 
     447   -218.14588 
     448   -218.14589 
     449   -218.14589 
     450   -218.14589 
     451   -218.14589 
     452   -218.14589 
     453   -218.14589 
     454    -218.1459 
     455    -218.1459 
     456    -218.1459 
     457   -218.14591 
     458   -218.14591 
     459   -218.14592 
     460   -218.14593 
     461   -218.14594 
     462   -218.14595 
     463   -218.14596 
     464   -218.14597 
     465   -218.14599 
     466   -218.14601 
     467   -218.14602 
     468   -218.14603 
     469   -218.14605 
     470   -218.14607 
     471    -218.1461 
     472   -218.14612 
     473   -218.14613 
     474   -218.14615 
     475   -218.14618 
     476   -218.14621 
     477   -218.14623 
     478   -218.14624 
     479   -218.14625 
     480   -218.14628 
     481   -218.14632 
     482   -218.14635 
     483   -218.14636 
     484   -218.14636 
     485   -218.14638 
     486   -218.14643 
     487   -218.14648 
     488    -218.1465 
     489    -218.1465 
     490    -218.1465 
     491    -218.1465 
     492   -218.14651 
     493   -218.14651 
     494   -218.14651 
     495   -218.14652 
     496   -218.14652 
     497   -218.14652 
     498   -218.14652 
     499   -218.14652 
     500   -218.14653 
     501   -218.14654 
     502   -218.14656 
     503   -218.14656 
     504   -218.14656 
     505   -218.14657 
     506   -218.14659 
     507   -218.14661 
     508   -218.14662 
     509   -218.14663 
     510   -218.14663 
     511   -218.14665 
     512   -218.14667 
     513    -218.1467 
     514   -218.14671 
     515    -218.1467 
     516    -218.1467 
     517   -218.14672 
     518   -218.14677 
     519   -218.14681 
     520    -218.1468 
     521    -218.1468 
     522    -218.1468 
     523   -218.14681 
     524   -218.14682 
     525   -218.14682 
     526   -218.14683 
     527   -218.14683 
     528   -218.14683 
     529   -218.14683 
     530   -218.14683 
     531   -218.14683 
     532   -218.14683 
     533   -218.14683 
     534   -218.14683 
     535   -218.14684 
     536   -218.14684 
     537   -218.14684 
     538   -218.14684 
     539   -218.14684 
     540   -218.14684 
     541   -218.14685 
     542   -218.14685 
     543   -218.14685 
     544   -218.14686 
     545   -218.14687 
     546   -218.14687 
     547   -218.14688 
     548   -218.14689 
     549    -218.1469 
     550   -218.14692 
     551   -218.14693 
     552   -218.14694 
     553   -218.14696 
     554   -218.14697 
     555   -218.14699 
     556   -218.14701 
     557   -218.14702 
     558   -218.14704 
     559   -218.14706 
     560   -218.14708 
     561    -218.1471 
     562   -218.14712 
     563   -218.14713 
     564   -218.14715 
     565   -218.14718 
     566    -218.1472 
     567   -218.14722 
     568   -218.14723 
     569   -218.14725 
     570   -218.14728 
     571   -218.14732 
     572   -218.14733 
     573   -218.14733 
     574   -218.14733 
     575   -218.14737 
     576   -218.14742 
     577   -218.14745 
     578   -218.14744 
     579   -218.14744 
     580   -218.14744 
     581   -218.14745 
     582   -218.14746 
     583   -218.14747 
     584   -218.14748 
     585   -218.14748 
     586   -218.14748 
     587   -218.14748 
     588   -218.14748 
     589   -218.14748 
     590   -218.14748 
     591   -218.14748 
     592   -218.14748 
     593   -218.14748 
     594   -218.14748 
     595   -218.14749 
     596   -218.14749 
     597   -218.14749 
     598   -218.14749 
     599   -218.14749 
     600   -218.14749 
     601    -218.1475 
     602    -218.1475 
     603   -218.14751 
     604   -218.14752 
     605   -218.14752 
     606   -218.14753 
     607   -218.14754 
     608   -218.14755 
     609   -218.14756 
     610   -218.14757 
     611   -218.14758 
     612   -218.14759 
     613   -218.14761 
     614   -218.14762 
     615   -218.14764 
     616   -218.14764 
     617   -218.14765 
     618   -218.14767 
     619   -218.14769 
     620   -218.14771 
     621   -218.14772 
     622   -218.14772 
     623   -218.14774 
     624   -218.14777 
     625   -218.14779 
     626    -218.1478 
     627   -218.14779 
     628   -218.14779 
     629    -218.1478 
     630    -218.1478 
     631   -218.14781 
     632   -218.14782 
     633   -218.14783 
     634   -218.14783 
     635   -218.14783 
     636   -218.14783 
     637   -218.14783 
     638   -218.14783 
     639   -218.14783 
     640   -218.14783 
     641   -218.14783 
     642   -218.14783 
     643   -218.14784 
     644   -218.14784 
     645   -218.14784 
     646   -218.14784 
     647   -218.14784 
     648   -218.14784 
     649   -218.14784 
     650   -218.14785 
     651   -218.14785 
     652   -218.14786 
     653   -218.14786 
     654   -218.14787 
     655   -218.14788 
     656   -218.14788 
     657   -218.14789 
     658   -218.14791 
     659   -218.14791 
     660   -218.14792 
     661   -218.14793 
     662   -218.14795 
     663   -218.14796 
     664   -218.14797 
     665   -218.14798 
     666   -218.14799 
     667     -218.148 
     668   -218.14802 
     669   -218.14804 
     670   -218.14804 
     671   -218.14805 
     672   -218.14806 
     673   -218.14809 
     674   -218.14811 
     675   -218.14812 
     676   -218.14811 
     677   -218.14811 
     678   -218.14813 
     679   -218.14817 
     680    -218.1482 
     681    -218.1482 
     682    -218.1482 
     683    -218.1482 
     684    -218.1482 
     685   -218.14821 
     686   -218.14822 
     687   -218.14822 
     688   -218.14822 
     689   -218.14822 
     690   -218.14822 
     691   -218.14822 
     692   -218.14822 
     693   -218.14822 
     694   -218.14822 
     695   -218.14822 
     696   -218.14823 
     697   -218.14823 
     698   -218.14823 
     699   -218.14823 
     700   -218.14823 
     701   -218.14823 
     702   -218.14823 
     703   -218.14823 
     704   -218.14824 
     705   -218.14824 
     706   -218.14825 
     707   -218.14825 
     708   -218.14826 
     709   -218.14826 
     710   -218.14827 
     711   -218.14828 
     712   -218.14829 
     713    -218.1483 
     714    -218.1483 
     715   -218.14831 
     716   -218.14832 
     717   -218.14834 
     718   -218.14835 
     719   -218.14835 
     720   -218.14836 
     721   -218.14838 
     722    -218.1484 
     723   -218.14841 
     724   -218.14841 
     725   -218.14842 
     726   -218.14844 
     727   -218.14846 
     728   -218.14847 
     729   -218.14847 
     730   -218.14848 
     731   -218.14849 
     732   -218.14852 
     733   -218.14854 
     734   -218.14855 
     735   -218.14855 
     736   -218.14855 
     737   -218.14855 
     738   -218.14855 
     739   -218.14856 
     740   -218.14856 
     741   -218.14856 
     742   -218.14856 
     743   -218.14856 
     744   -218.14856 
     745   -218.14856 
     746   -218.14857 
     747   -218.14857 
     748   -218.14858 
     749   -218.14858 
     750   -218.14858 
     751   -218.14858 
     752   -218.14859 
     753   -218.14861 
     754   -218.14862 
     755   -218.14862 
     756   -218.14862 
     757   -218.14862 
     758   -218.14862 
     759   -218.14862 
     760   -218.14863 
     761   -218.14863 
     762   -218.14863 
     763   -218.14863 
     764   -218.14863 
     765   -218.14863 
     766   -218.14863 
     767   -218.14864 
     768   -218.14864 
     769   -218.14865 
     770   -218.14865 
     771   -218.14865 
     772   -218.14866 
     773   -218.14866 
     774   -218.14868 
     775   -218.14868 
     776   -218.14869 
     777   -218.14868 
     778   -218.14869 
     779   -218.14871 
     780   -218.14872 
     781   -218.14873 
     782   -218.14872 
     783   -218.14872 
     784   -218.14872 
     785   -218.14873 
     786   -218.14873 
     787   -218.14874 
     788   -218.14874 
     789   -218.14874 
     790   -218.14874 
     791   -218.14874 
     792   -218.14874 
     793   -218.14874 
     794   -218.14874 
     795   -218.14874 
     796   -218.14875 
     797   -218.14875 
     798   -218.14875 
     799   -218.14875 
     800   -218.14875 
     801   -218.14875 
     802   -218.14875 
     803   -218.14875 
     804   -218.14875 
     805   -218.14876 
     806   -218.14876 
     807   -218.14876 
     808   -218.14877 
     809   -218.14877 
     810   -218.14878 
     811   -218.14878 
     812   -218.14879 
     813    -218.1488 
     814    -218.1488 
     815   -218.14881 
     816   -218.14881 
     817   -218.14882 
     818   -218.14883 
     819   -218.14884 
     820   -218.14885 
     821   -218.14886 
     822   -218.14887 
     823   -218.14888 
     824   -218.14889 
     825   -218.14889 
     826    -218.1489 
     827   -218.14891 
     828   -218.14893 
     829   -218.14894 
     830   -218.14895 
     831   -218.14895 
     832   -218.14895 
     833   -218.14897 
     834     -218.149 
     835     -218.149 
     836     -218.149 
     837     -218.149 
     838   -218.14901 
     839   -218.14901 
     840   -218.14901 
     841   -218.14901 
     842   -218.14901 
     843   -218.14901 
     844   -218.14901 
     845   -218.14901 
     846   -218.14902 
     847   -218.14902 
     848   -218.14902 
     849   -218.14903 
     850   -218.14903 
     851   -218.14903 
     852   -218.14904 
     853   -218.14904 
     854   -218.14905 
     855   -218.14906 
     856   -218.14906 
     857   -218.14906 
     858   -218.14907 
     859   -218.14908 
     860   -218.14909 
     861   -218.14909 
     862   -218.14909 
     863   -218.14909 
     864    -218.1491 
     865   -218.14912 
     866   -218.14913 
     867   -218.14913 
     868   -218.14913 
     869   -218.14913 
     870   -218.14914 
     871   -218.14914 
     872   -218.14914 
     873   -218.14914 
     874   -218.14915 
     875   -218.14914 
     876   -218.14914 
     877   -218.14915 
     878   -218.14915 
     879   -218.14915 
     880   -218.14915 
     881   -218.14915 
     882   -218.14915 
     883   -218.14915 
     884   -218.14915 
     885   -218.14915 
     886   -218.14915 
     887   -218.14915 
     888   -218.14915 
     889   -218.14915 
     890   -218.14915 
     891   -218.14916 
     892   -218.14916 
     893   -218.14916 
     894   -218.14917 
     895   -218.14917 
     896   -218.14918 
     897   -218.14918 
     898   -218.14919 
     899   -218.14919 
     900    -218.1492 
     901    -218.1492 
     902   -218.14921 
     903   -218.14922 
     904   -218.14923 
     905   -218.14923 
     906   -218.14924 
     907   -218.14925 
     908   -218.14926 
     909   -218.14927 
     910   -218.14927 
     911   -218.14928 
     912   -218.14929 
     913    -218.1493 
     914   -218.14931 
     915   -218.14931 
     916   -218.14932 
     917   -218.14934 
     918   -218.14935 
     919   -218.14936 
     920   -218.14936 
     921   -218.14936 
     922   -218.14938 
     923    -218.1494 
     924   -218.14941 
     925    -218.1494 
     926    -218.1494 
     927    -218.1494 
     928   -218.14941 
     929   -218.14941 
     930   -218.14942 
     931   -218.14942 
     932   -218.14942 
     933   -218.14942 
     934   -218.14942 
     935   -218.14942 
     936   -218.14942 
     937   -218.14942 
     938   -218.14942 
     939   -218.14942 
     940   -218.14942 
     941   -218.14942 
     942   -218.14942 
     943   -218.14943 
     944   -218.14943 
     945   -218.14943 
     946   -218.14943 
     947   -218.14943 
     948   -218.14943 
     949   -218.14943 
     950   -218.14943 
     951   -218.14944 
     952   -218.14944 
     953   -218.14944 
     954   -218.14945 
     955   -218.14945 
     956   -218.14946 
     957   -218.14946 
     958   -218.14946 
     959   -218.14947 
     960   -218.14947 
     961   -218.14948 
     962   -218.14949 
     963   -218.14949 
     964   -218.14949 
     965    -218.1495 
     966   -218.14951 
     967   -218.14952 
     968   -218.14952 
     969   -218.14952 
     970   -218.14953 
     971   -218.14954 
     972   -218.14955 
     973   -218.14956 
     974   -218.14956 
     975   -218.14956 
     976   -218.14956 
     977   -218.14956 
     978   -218.14956 
     979   -218.14957 
     980   -218.14957 
     981   -218.14957 
     982   -218.14957 
     983   -218.14957 
     984   -218.14957 
     985   -218.14957 
     986   -218.14957 
     987   -218.14957 
     988   -218.14957 
     989   -218.14957 
     990   -218.14957 
     991   -218.14957 
     992   -218.14957 
     993   -218.14957 
     994   -218.14957 
     995   -218.14957 
     996   -218.14958 
     997   -218.14958 
     998   -218.14958 
     999   -218.14958 
    1000   -218.14958 
Loop time of 2778.97 on 1 procs for 1000 steps with 2 atoms

99.3% CPU use with 1 MPI tasks x no OpenMP threads

Minimization stats:
  Stopping criterion = max iterations
  Energy initial, next-to-last, final = 
        -218.068461739     -218.149580806     -218.149583379
  Force two-norm initial, final = 0.210568 0.00142552
  Force max component initial, final = 0.126057 0.001003
  Final line search alpha, max atom move = 0 0
  Iterations, force evaluations = 1000 1000

MPI task timing breakdown:
Section |  min time  |  avg time  |  max time  |%varavg| %total
---------------------------------------------------------------
Pair    | 2778.8     | 2778.8     | 2778.8     |   0.0 | 99.99
Neigh   | 0          | 0          | 0          |   0.0 |  0.00
Comm    | 0.00073719 | 0.00073719 | 0.00073719 |   0.0 |  0.00
Output  | 0.15945    | 0.15945    | 0.15945    |   0.0 |  0.01
Modify  | 0          | 0          | 0          |   0.0 |  0.00
Other   |            | 0.05191    |            |       |  0.00

Nlocal:    2 ave 2 max 2 min
Histogram: 1 0 0 0 0 0 0 0 0 0
Nghost:    0 ave 0 max 0 min
Histogram: 1 0 0 0 0 0 0 0 0 0
Neighs:    0 ave 0 max 0 min
Histogram: 1 0 0 0 0 0 0 0 0 0

Total # of neighbors = 0
Ave neighs/atom = 0
Neighbor list builds = 0
Dangerous builds = 0
Total wall time: 0:46:21
